# vtk DataFile Version 1.0
Cube
ASCII

DATASET POLYDATA
POINTS 598 float
0.494628 5.330406 0.276255
0.799824 4.562154 2.775705
1.131330 2.823063 0.831396
2.880945 4.756848 1.191843
4.896291 4.401663 2.841480
5.322513 5.264631 0.392019
6.064455 7.771974 0.702477
7.743033 5.819772 1.247094
5.498790 10.250376 1.394430
3.625518 8.403414 1.454943
5.569827 8.374473 3.217713
1.736460 8.313960 3.288750
1.765401 10.258269 1.525980
1.160271 12.728778 0.884016
3.636042 12.107862 1.462836
5.517207 12.094707 3.288750
5.288310 5.288310 5.288310
0.289410 0.289410 0.289410
6.167064 12.812970 0.741942
1.320762 4.362198 1.262880
4.417449 4.296423 1.307607
6.551190 6.298614 0.276255
5.190963 8.698086 1.686471
2.070597 8.695455 1.760139
2.094276 11.805297 1.815390
5.190963 11.792142 1.741722
1.289190 1.289190 1.289190
4.359567 4.359567 4.359567
6.214422 6.214422 6.214422
1.247094 20.227128 6.853755
2.015346 20.532324 9.353205
3.754437 20.863830 7.408896
1.820652 22.613445 7.769343
2.175837 24.628791 9.418980
1.312869 25.055013 6.969519
25.115526 25.796955 7.279977
0.757728 1.165533 7.824594
22.637124 25.231290 7.971930
24.484086 23.358018 8.032443
24.513027 25.302327 9.795213
24.573540 21.468960 9.866250
22.629231 21.497901 8.103480
20.158722 20.892771 7.461516
20.779638 23.368542 8.040336
20.792793 25.249707 9.866250
1.289190 25.020810 11.865810
6.288090 20.021910 6.866910
20.074530 25.899564 7.319442
2.215302 21.053262 7.840380
2.281077 24.149949 7.885107
0.278886 -0.026310 6.853755
0.278886 26.283690 6.853755
24.189414 24.923463 8.263971
24.192045 21.803097 8.337639
21.082203 21.826776 8.392890
21.095358 24.923463 8.319222
5.288310 21.021690 7.866690
2.217933 24.092067 10.937067
0.363078 25.946922 12.791922
12.660372 20.979594 13.431255
12.355176 21.747846 15.930705
12.023670 23.486937 13.986396
10.274055 21.553152 14.346843
8.258709 21.908337 15.996480
7.832487 21.045369 13.547019
7.090545 18.538026 13.857477
5.411967 20.490228 14.402094
7.656210 16.059624 14.549430
9.529482 17.906586 14.609943
7.585173 17.935527 16.372713
11.418540 17.996040 16.443750
11.389599 16.051731 14.680980
11.994729 13.581222 14.039016
9.518958 14.202138 14.617836
7.637793 14.215293 16.443750
7.866690 21.021690 18.443310
12.865590 26.020590 13.444410
6.987936 13.497030 13.896942
11.834238 21.947802 14.417880
8.737551 22.013577 14.462607
6.603810 20.011386 13.431255
7.964037 17.611914 14.841471
11.084403 17.614545 14.915139
11.060724 14.504703 14.970390
7.964037 14.517858 14.896722
11.865810 25.020810 14.444190
8.795433 21.950433 17.514567
6.940578 20.095578 19.369422
11.907906 6.082872 20.008755
11.139654 5.777676 22.508205
9.400563 5.446170 20.563896
11.334348 3.696555 20.924343
10.979163 1.681209 22.573980
11.842131 1.254987 20.124519
14.349474 0.513045 20.434977
12.397272 25.144467 20.979594
16.827876 1.078710 21.126930
14.980914 2.951982 21.187443
14.951973 1.007673 22.950213
14.891460 4.841040 23.021250
16.835769 4.812099 21.258480
19.306278 5.417229 20.616516
18.685362 2.941458 21.195336
18.672207 1.060293 23.021250
11.865810 1.289190 25.020810
6.866910 6.288090 20.021910
19.390470 0.410436 20.474442
10.939698 5.256738 20.995380
10.873923 2.160051 21.040107
12.876114 0.026310 20.008755
12.876114 26.336310 20.008755
15.275586 1.386537 21.418971
15.272955 4.506903 21.492639
18.382797 4.483224 21.547890
18.369642 1.386537 21.474222
7.866690 5.288310 21.021690
10.937067 2.217933 24.092067
12.791922 0.363078 25.946922
13.649628 7.824594 26.033745
13.954824 8.592846 23.534295
14.286330 10.331937 25.478604
16.035945 8.398152 25.118157
18.051291 8.753337 23.468520
18.477513 7.890369 25.917981
19.219455 5.383026 25.607523
20.898033 7.335228 25.062906
18.653790 2.904624 24.915570
16.780518 4.751586 24.855057
18.724827 4.780527 23.092287
14.920401 2.896731 24.784020
14.315271 0.426222 25.425984
16.791042 1.047138 24.847164
18.443310 7.866690 21.021690
13.444410 12.865590 26.020590
19.322064 0.342030 25.568058
14.475762 8.792802 25.047120
17.572449 8.858577 25.002393
19.706190 6.856386 26.033745
18.345963 4.456914 24.623529
15.225597 4.459545 24.549861
15.249276 1.349703 24.494610
18.345963 1.362858 24.568278
14.444190 11.865810 25.020810
17.514567 8.795433 21.950433
19.369422 6.940578 20.095578
25.062906 7.072128 6.301245
24.294654 7.377324 3.801795
22.555563 7.708830 5.746104
24.489348 9.458445 5.385657
24.134163 11.473791 3.736020
24.997131 11.900013 6.185481
1.194474 12.641955 5.875023
25.552272 14.320533 5.330406
3.672876 12.076290 5.183070
1.825914 10.203018 5.122557
1.796973 12.147327 3.359787
3.680769 8.342901 5.051520
6.151278 7.737771 5.693484
5.530362 10.213542 5.114664
25.020810 11.865810 1.289190
20.021910 6.866910 6.288090
6.235470 12.744564 5.835558
24.094698 7.898262 5.314620
24.028923 10.994949 5.269893
26.031114 13.128690 6.301245
2.120586 11.768463 4.891029
2.117955 8.648097 4.817361
5.227797 8.671776 4.762110
5.214642 11.768463 4.835778
21.021690 7.866690 5.288310
24.092067 10.937067 2.217933
25.946922 12.791922 0.363078
25.815372 18.485406 12.878745
25.510176 17.717154 10.379295
25.178670 15.978063 12.323604
23.429055 17.911848 11.963157
21.413709 17.556663 10.313520
20.987487 18.419631 12.762981
20.245545 20.926974 12.452523
18.566967 18.974772 11.907906
20.811210 23.405376 11.760570
22.684482 21.558414 11.700057
20.740173 21.529473 9.937287
24.544599 23.413269 11.629020
25.149729 25.883778 12.270984
22.673958 25.262862 11.692164
21.021690 18.443310 7.866690
26.020590 13.444410 12.865590
20.142936 25.967970 12.413058
24.989238 17.517198 11.892120
21.892551 17.451423 11.847393
19.758810 19.453614 12.878745
21.119037 21.853086 11.468529
24.239403 21.850455 11.394861
24.215724 24.960297 11.339610
21.119037 24.947142 11.413278
25.020810 14.444190 11.865810
21.950433 17.514567 8.795433
20.095578 19.369422 6.940578
14.402094 19.237872 19.456245
15.170346 18.932676 16.956795
16.909437 18.601170 18.901104
14.975652 16.851555 18.540657
15.330837 14.836209 16.891020
14.467869 14.409987 19.340481
11.960526 13.668045 19.030023
13.912728 11.989467 18.485406
9.482124 14.233710 18.338070
11.329086 16.106982 18.277557
11.358027 14.162673 16.514787
9.474231 17.967099 18.206520
7.003722 18.572229 18.848484
7.624638 16.096458 18.269664
14.444190 14.444190 14.444190
19.443090 19.443090 19.443090
6.919530 13.565436 18.990558
15.370302 18.411738 18.469620
15.436077 15.315051 18.424893
13.433886 13.181310 19.456245
11.034414 14.541537 18.046029
11.037045 17.661903 17.972361
7.927203 17.638224 17.917110
7.940358 14.541537 17.990778
18.443310 18.443310 18.443310
15.372933 15.372933 15.372933
13.518078 13.518078 13.518078
0.276255 0.494628 5.330406
2.775705 0.799824 4.562154
0.831396 1.131330 2.823063
1.191843 2.880945 4.756848
2.841480 4.896291 4.401663
0.392019 5.322513 5.264631
0.702477 6.064455 7.771974
1.247094 7.743033 5.819772
1.394430 5.498790 10.250376
1.454943 3.625518 8.403414
3.217713 5.569827 8.374473
3.288750 1.736460 8.313960
1.525980 1.765401 10.258269
0.884016 1.160271 12.728778
1.462836 3.636042 12.107862
3.288750 5.517207 12.094707
0.741942 6.167064 12.812970
1.262880 1.320762 4.362198
1.307607 4.417449 4.296423
0.276255 6.551190 6.298614
1.686471 5.190963 8.698086
1.760139 2.070597 8.695455
1.815390 2.094276 11.805297
1.741722 5.190963 11.792142
6.082872 20.008755 11.907906
5.777676 22.508205 11.139654
5.446170 20.563896 9.400563
3.696555 20.924343 11.334348
1.681209 22.573980 10.979163
1.254987 20.124519 11.842131
0.513045 20.434977 14.349474
25.144467 20.979594 12.397272
1.078710 21.126930 16.827876
2.951982 21.187443 14.980914
1.007673 22.950213 14.951973
4.841040 23.021250 14.891460
4.812099 21.258480 16.835769
5.417229 20.616516 19.306278
2.941458 21.195336 18.685362
1.060293 23.021250 18.672207
0.410436 20.474442 19.390470
5.256738 20.995380 10.939698
2.160051 21.040107 10.873923
0.026310 20.008755 12.876114
26.336310 20.008755 12.876114
1.386537 21.418971 15.275586
4.506903 21.492639 15.272955
4.483224 21.547890 18.382797
1.386537 21.474222 18.369642
12.878745 25.815372 18.485406
10.379295 25.510176 17.717154
12.323604 25.178670 15.978063
11.963157 23.429055 17.911848
10.313520 21.413709 17.556663
12.762981 20.987487 18.419631
12.452523 20.245545 20.926974
11.907906 18.566967 18.974772
11.760570 20.811210 23.405376
11.700057 22.684482 21.558414
9.937287 20.740173 21.529473
9.866250 24.573540 21.468960
11.629020 24.544599 23.413269
12.270984 25.149729 25.883778
11.692164 22.673958 25.262862
9.866250 20.792793 25.249707
12.413058 20.142936 25.967970
11.892120 24.989238 17.517198
11.847393 21.892551 17.451423
12.878745 19.758810 19.453614
11.468529 21.119037 21.853086
11.394861 24.239403 21.850455
11.339610 24.215724 24.960297
11.413278 21.119037 24.947142
7.072128 6.301245 25.062906
7.377324 3.801795 24.294654
7.708830 5.746104 22.555563
9.458445 5.385657 24.489348
11.473791 3.736020 24.134163
11.900013 6.185481 24.997131
12.641955 5.875023 1.194474
14.320533 5.330406 25.552272
12.076290 5.183070 3.672876
10.203018 5.122557 1.825914
12.147327 3.359787 1.796973
8.313960 3.288750 1.736460
8.342901 5.051520 3.680769
7.737771 5.693484 6.151278
10.213542 5.114664 5.530362
12.094707 3.288750 5.517207
12.744564 5.835558 6.235470
7.898262 5.314620 24.094698
10.994949 5.269893 24.028923
13.128690 6.301245 26.031114
11.768463 4.891029 2.120586
8.648097 4.817361 2.117955
8.671776 4.762110 5.227797
11.768463 4.835778 5.214642
13.431255 12.660372 20.979594
15.930705 12.355176 21.747846
13.986396 12.023670 23.486937
14.346843 10.274055 21.553152
15.996480 8.258709 21.908337
13.547019 7.832487 21.045369
13.857477 7.090545 18.538026
14.402094 5.411967 20.490228
14.549430 7.656210 16.059624
14.609943 9.529482 17.906586
16.372713 7.585173 17.935527
16.443750 11.418540 17.996040
14.680980 11.389599 16.051731
14.039016 11.994729 13.581222
14.617836 9.518958 14.202138
16.443750 7.637793 14.215293
13.896942 6.987936 13.497030
14.417880 11.834238 21.947802
14.462607 8.737551 22.013577
13.431255 6.603810 20.011386
14.841471 7.964037 17.611914
14.915139 11.084403 17.614545
14.970390 11.060724 14.504703
14.896722 7.964037 14.517858
20.227128 6.853755 1.247094
20.532324 9.353205 2.015346
20.863830 7.408896 3.754437
22.613445 7.769343 1.820652
24.628791 9.418980 2.175837
25.055013 6.969519 1.312869
25.796955 7.279977 25.115526
1.165533 7.824594 0.757728
25.231290 7.971930 22.637124
23.358018 8.032443 24.484086
25.302327 9.795213 24.513027
21.468960 9.866250 24.573540
21.497901 8.103480 22.629231
20.892771 7.461516 20.158722
23.368542 8.040336 20.779638
25.249707 9.866250 20.792793
25.899564 7.319442 20.074530
21.053262 7.840380 2.215302
24.149949 7.885107 2.281077
-0.026310 6.853755 0.278886
26.283690 6.853755 0.278886
24.923463 8.263971 24.189414
21.803097 8.337639 24.192045
21.826776 8.392890 21.082203
24.923463 8.319222 21.095358
26.033745 13.649628 7.824594
23.534295 13.954824 8.592846
25.478604 14.286330 10.331937
25.118157 16.035945 8.398152
23.468520 18.051291 8.753337
25.917981 18.477513 7.890369
25.607523 19.219455 5.383026
25.062906 20.898033 7.335228
24.915570 18.653790 2.904624
24.855057 16.780518 4.751586
23.092287 18.724827 4.780527
23.021250 14.891460 4.841040
24.784020 14.920401 2.896731
25.425984 14.315271 0.426222
24.847164 16.791042 1.047138
23.021250 18.672207 1.060293
25.568058 19.322064 0.342030
25.047120 14.475762 8.792802
25.002393 17.572449 8.858577
26.033745 19.706190 6.856386
24.623529 18.345963 4.456914
24.549861 15.225597 4.459545
24.494610 15.249276 1.349703
24.568278 18.345963 1.362858
19.237872 19.456245 14.402094
18.932676 16.956795 15.170346
18.601170 18.901104 16.909437
16.851555 18.540657 14.975652
14.836209 16.891020 15.330837
14.409987 19.340481 14.467869
13.668045 19.030023 11.960526
11.989467 18.485406 13.912728
14.233710 18.338070 9.482124
16.106982 18.277557 11.329086
14.162673 16.514787 11.358027
17.996040 16.443750 11.418540
17.967099 18.206520 9.474231
18.572229 18.848484 7.003722
16.096458 18.269664 7.624638
14.215293 16.443750 7.637793
13.565436 18.990558 6.919530
18.411738 18.469620 15.370302
15.315051 18.424893 15.436077
13.181310 19.456245 13.433886
14.541537 18.046029 11.034414
17.661903 17.972361 11.037045
17.638224 17.917110 7.927203
14.541537 17.990778 7.940358
5.330406 0.276255 0.494628
4.562154 2.775705 0.799824
2.823063 0.831396 1.131330
4.756848 1.191843 2.880945
4.401663 2.841480 4.896291
5.264631 0.392019 5.322513
7.771974 0.702477 6.064455
5.819772 1.247094 7.743033
10.250376 1.394430 5.498790
8.403414 1.454943 3.625518
8.374473 3.217713 5.569827
10.258269 1.525980 1.765401
12.728778 0.884016 1.160271
12.107862 1.462836 3.636042
12.812970 0.741942 6.167064
4.362198 1.262880 1.320762
4.296423 1.307607 4.417449
6.298614 0.276255 6.551190
8.698086 1.686471 5.190963
8.695455 1.760139 2.070597
11.805297 1.815390 2.094276
11.792142 1.741722 5.190963
18.485406 12.878745 25.815372
17.717154 10.379295 25.510176
15.978063 12.323604 25.178670
17.911848 11.963157 23.429055
17.556663 10.313520 21.413709
18.419631 12.762981 20.987487
20.926974 12.452523 20.245545
18.974772 11.907906 18.566967
23.405376 11.760570 20.811210
21.558414 11.700057 22.684482
21.529473 9.937287 20.740173
23.413269 11.629020 24.544599
25.883778 12.270984 25.149729
25.262862 11.692164 22.673958
25.967970 12.413058 20.142936
17.517198 11.892120 24.989238
17.451423 11.847393 21.892551
19.453614 12.878745 19.758810
21.853086 11.468529 21.119037
21.850455 11.394861 24.239403
24.960297 11.339610 24.215724
24.947142 11.413278 21.119037
20.008755 11.907906 6.082872
22.508205 11.139654 5.777676
20.563896 9.400563 5.446170
20.924343 11.334348 3.696555
22.573980 10.979163 1.681209
20.124519 11.842131 1.254987
20.434977 14.349474 0.513045
20.979594 12.397272 25.144467
21.126930 16.827876 1.078710
21.187443 14.980914 2.951982
22.950213 14.951973 1.007673
21.258480 16.835769 4.812099
20.616516 19.306278 5.417229
21.195336 18.685362 2.941458
20.474442 19.390470 0.410436
20.995380 10.939698 5.256738
21.040107 10.873923 2.160051
20.008755 12.876114 0.026310
20.008755 12.876114 26.336310
21.418971 15.275586 1.386537
21.492639 15.272955 4.506903
21.547890 18.382797 4.483224
21.474222 18.369642 1.386537
20.979594 13.431255 12.660372
21.747846 15.930705 12.355176
23.486937 13.986396 12.023670
21.553152 14.346843 10.274055
21.908337 15.996480 8.258709
21.045369 13.547019 7.832487
18.538026 13.857477 7.090545
20.490228 14.402094 5.411967
16.059624 14.549430 7.656210
17.906586 14.609943 9.529482
17.935527 16.372713 7.585173
16.051731 14.680980 11.389599
13.581222 14.039016 11.994729
14.202138 14.617836 9.518958
13.497030 13.896942 6.987936
21.947802 14.417880 11.834238
22.013577 14.462607 8.737551
20.011386 13.431255 6.603810
17.611914 14.841471 7.964037
17.614545 14.915139 11.084403
14.504703 14.970390 11.060724
14.517858 14.896722 7.964037
19.456245 14.402094 19.237872
16.956795 15.170346 18.932676
18.901104 16.909437 18.601170
18.540657 14.975652 16.851555
16.891020 15.330837 14.836209
19.340481 14.467869 14.409987
19.030023 11.960526 13.668045
18.485406 13.912728 11.989467
18.338070 9.482124 14.233710
18.277557 11.329086 16.106982
16.514787 11.358027 14.162673
18.206520 9.474231 17.967099
18.848484 7.003722 18.572229
18.269664 7.624638 16.096458
18.990558 6.919530 13.565436
18.469620 15.370302 18.411738
18.424893 15.436077 15.315051
19.456245 13.433886 13.181310
18.046029 11.034414 14.541537
17.972361 11.037045 17.661903
17.917110 7.927203 17.638224
17.990778 7.940358 14.541537
7.824594 26.033745 13.649628
8.592846 23.534295 13.954824
10.331937 25.478604 14.286330
8.398152 25.118157 16.035945
8.753337 23.468520 18.051291
7.890369 25.917981 18.477513
5.383026 25.607523 19.219455
7.335228 25.062906 20.898033
2.904624 24.915570 18.653790
4.751586 24.855057 16.780518
4.780527 23.092287 18.724827
2.896731 24.784020 14.920401
0.426222 25.425984 14.315271
1.047138 24.847164 16.791042
0.342030 25.568058 19.322064
8.792802 25.047120 14.475762
8.858577 25.002393 17.572449
6.856386 26.033745 19.706190
4.456914 24.623529 18.345963
4.459545 24.549861 15.225597
1.349703 24.494610 15.249276
1.362858 24.568278 18.345963
6.853755 1.247094 20.227128
9.353205 2.015346 20.532324
7.408896 3.754437 20.863830
7.769343 1.820652 22.613445
9.418980 2.175837 24.628791
6.969519 1.312869 25.055013
7.279977 25.115526 25.796955
7.824594 0.757728 1.165533
7.971930 22.637124 25.231290
8.032443 24.484086 23.358018
9.795213 24.513027 25.302327
8.103480 22.629231 21.497901
7.461516 20.158722 20.892771
8.040336 20.779638 23.368542
7.319442 20.074530 25.899564
7.840380 2.215302 21.053262
7.885107 2.281077 24.149949
6.853755 0.278886 -0.026310
6.853755 0.278886 26.283690
8.263971 24.189414 24.923463
8.337639 24.192045 21.803097
8.392890 21.082203 21.826776
8.319222 21.095358 24.923463
6.301245 25.062906 7.072128
3.801795 24.294654 7.377324
5.746104 22.555563 7.708830
5.385657 24.489348 9.458445
3.736020 24.134163 11.473791
6.185481 24.997131 11.900013
5.875023 1.194474 12.641955
5.330406 25.552272 14.320533
5.183070 3.672876 12.076290
5.122557 1.825914 10.203018
3.359787 1.796973 12.147327
5.051520 3.680769 8.342901
5.693484 6.151278 7.737771
5.114664 5.530362 10.213542
5.835558 6.235470 12.744564
5.314620 24.094698 7.898262
5.269893 24.028923 10.994949
6.301245 26.031114 13.128690
4.891029 2.120586 11.768463
4.817361 2.117955 8.648097
4.762110 5.227797 8.671776
4.835778 5.214642 11.768463
POINT_DATA 598
SCALARS my_scalars float
LOOKUP_TABLE default
1.52
1.52
1.52
1.52
1.52
1.52
1.52
1.52
1.52
1.52
1.52
1.52
1.52
1.52
1.52
1.52
1.52
1.52
1.52
2.1
2.1
2.1
2.1
2.1
2.1
2.1
2.1
2.1
2.1
1.52
1.52
1.52
1.52
1.52
1.52
1.52
1.52
1.52
1.52
1.52
1.52
1.52
1.52
1.52
1.52
1.52
1.52
1.52
2.1
2.1
2.1
2.1
2.1
2.1
2.1
2.1
2.1
2.1
2.1
1.52
1.52
1.52
1.52
1.52
1.52
1.52
1.52
1.52
1.52
1.52
1.52
1.52
1.52
1.52
1.52
1.52
1.52
1.52
2.1
2.1
2.1
2.1
2.1
2.1
2.1
2.1
2.1
2.1
1.52
1.52
1.52
1.52
1.52
1.52
1.52
1.52
1.52
1.52
1.52
1.52
1.52
1.52
1.52
1.52
1.52
1.52
1.52
2.1
2.1
2.1
2.1
2.1
2.1
2.1
2.1
2.1
2.1
2.1
1.52
1.52
1.52
1.52
1.52
1.52
1.52
1.52
1.52
1.52
1.52
1.52
1.52
1.52
1.52
1.52
1.52
2.1
2.1
2.1
2.1
2.1
2.1
2.1
2.1
2.1
2.1
1.52
1.52
1.52
1.52
1.52
1.52
1.52
1.52
1.52
1.52
1.52
1.52
1.52
1.52
1.52
1.52
1.52
2.1
2.1
2.1
2.1
2.1
2.1
2.1
2.1
2.1
2.1
1.52
1.52
1.52
1.52
1.52
1.52
1.52
1.52
1.52
1.52
1.52
1.52
1.52
1.52
1.52
1.52
1.52
2.1
2.1
2.1
2.1
2.1
2.1
2.1
2.1
2.1
2.1
1.52
1.52
1.52
1.52
1.52
1.52
1.52
1.52
1.52
1.52
1.52
1.52
1.52
1.52
1.52
1.52
1.52
2.1
2.1
2.1
2.1
2.1
2.1
2.1
2.1
2.1
2.1
1.52
1.52
1.52
1.52
1.52
1.52
1.52
1.52
1.52
1.52
1.52
1.52
1.52
1.52
1.52
1.52
1.52
2.1
2.1
2.1
2.1
2.1
2.1
2.1
1.52
1.52
1.52
1.52
1.52
1.52
1.52
1.52
1.52
1.52
1.52
1.52
1.52
1.52
1.52
1.52
1.52
2.1
2.1
2.1
2.1
2.1
2.1
2.1
2.1
1.52
1.52
1.52
1.52
1.52
1.52
1.52
1.52
1.52
1.52
1.52
1.52
1.52
1.52
1.52
1.52
1.52
2.1
2.1
2.1
2.1
2.1
2.1
2.1
1.52
1.52
1.52
1.52
1.52
1.52
1.52
1.52
1.52
1.52
1.52
1.52
1.52
1.52
1.52
1.52
1.52
2.1
2.1
2.1
2.1
2.1
2.1
2.1
1.52
1.52
1.52
1.52
1.52
1.52
1.52
1.52
1.52
1.52
1.52
1.52
1.52
1.52
1.52
1.52
1.52
2.1
2.1
2.1
2.1
2.1
2.1
2.1
1.52
1.52
1.52
1.52
1.52
1.52
1.52
1.52
1.52
1.52
1.52
1.52
1.52
1.52
1.52
1.52
1.52
2.1
2.1
2.1
2.1
2.1
2.1
2.1
2.1
1.52
1.52
1.52
1.52
1.52
1.52
1.52
1.52
1.52
1.52
1.52
1.52
1.52
1.52
1.52
1.52
1.52
2.1
2.1
2.1
2.1
2.1
2.1
2.1
1.52
1.52
1.52
1.52
1.52
1.52
1.52
1.52
1.52
1.52
1.52
1.52
1.52
1.52
1.52
1.52
1.52
2.1
2.1
2.1
2.1
2.1
2.1
2.1
1.52
1.52
1.52
1.52
1.52
1.52
1.52
1.52
1.52
1.52
1.52
1.52
1.52
1.52
1.52
2.1
2.1
2.1
2.1
2.1
2.1
2.1
1.52
1.52
1.52
1.52
1.52
1.52
1.52
1.52
1.52
1.52
1.52
1.52
1.52
1.52
1.52
2.1
2.1
2.1
2.1
2.1
2.1
2.1
1.52
1.52
1.52
1.52
1.52
1.52
1.52
1.52
1.52
1.52
1.52
1.52
1.52
1.52
1.52
2.1
2.1
2.1
2.1
2.1
2.1
2.1
2.1
1.52
1.52
1.52
1.52
1.52
1.52
1.52
1.52
1.52
1.52
1.52
1.52
1.52
1.52
1.52
2.1
2.1
2.1
2.1
2.1
2.1
2.1
1.52
1.52
1.52
1.52
1.52
1.52
1.52
1.52
1.52
1.52
1.52
1.52
1.52
1.52
1.52
2.1
2.1
2.1
2.1
2.1
2.1
2.1
1.52
1.52
1.52
1.52
1.52
1.52
1.52
1.52
1.52
1.52
1.52
1.52
1.52
1.52
1.52
2.1
2.1
2.1
2.1
2.1
2.1
2.1
1.52
1.52
1.52
1.52
1.52
1.52
1.52
1.52
1.52
1.52
1.52
1.52
1.52
1.52
1.52
2.1
2.1
2.1
2.1
2.1
2.1
2.1
2.1
1.52
1.52
1.52
1.52
1.52
1.52
1.52
1.52
1.52
1.52
1.52
1.52
1.52
1.52
1.52
2.1
2.1
2.1
2.1
2.1
2.1
2.1
VECTORS vectors float
0.03125 0 0
0.03125 0 0
0.03125 0 0
0.03125 0 0
0.03125 0 0
0.03125 0 0
0.03125 0 0
0.03125 0 0
0.03125 0 0
0.03125 0 0
0.03125 0 0
0.03125 0 0
0.03125 0 0
0.03125 0 0
0.03125 0 0
0.03125 0 0
0.03125 0 0
0.03125 0 0
0.03125 0 0
0.125 0 0
0.125 0 0
0.125 0 0
0.125 0 0
0.125 0 0
0.125 0 0
0.125 0 0
0.125 0 0
0.125 0 0
0.125 0 0
0.03125 0 0
0.03125 0 0
0.03125 0 0
0.03125 0 0
0.03125 0 0
0.03125 0 0
0.03125 0 0
0.03125 0 0
0.03125 0 0
0.03125 0 0
0.03125 0 0
0.03125 0 0
0.03125 0 0
0.03125 0 0
0.03125 0 0
0.03125 0 0
0.03125 0 0
0.03125 0 0
0.03125 0 0
0.125 0 0
0.125 0 0
0.125 0 0
0.125 0 0
0.125 0 0
0.125 0 0
0.125 0 0
0.125 0 0
0.125 0 0
0.125 0 0
0.125 0 0
0.03125 0 0
0.03125 0 0
0.03125 0 0
0.03125 0 0
0.03125 0 0
0.03125 0 0
0.03125 0 0
0.03125 0 0
0.03125 0 0
0.03125 0 0
0.03125 0 0
0.03125 0 0
0.03125 0 0
0.03125 0 0
0.03125 0 0
0.03125 0 0
0.03125 0 0
0.03125 0 0
0.03125 0 0
0.125 0 0
0.125 0 0
0.125 0 0
0.125 0 0
0.125 0 0
0.125 0 0
0.125 0 0
0.125 0 0
0.125 0 0
0.125 0 0
0.03125 0 0
0.03125 0 0
0.03125 0 0
0.03125 0 0
0.03125 0 0
0.03125 0 0
0.03125 0 0
0.03125 0 0
0.03125 0 0
0.03125 0 0
0.03125 0 0
0.03125 0 0
0.03125 0 0
0.03125 0 0
0.03125 0 0
0.03125 0 0
0.03125 0 0
0.03125 0 0
0.03125 0 0
0.125 0 0
0.125 0 0
0.125 0 0
0.125 0 0
0.125 0 0
0.125 0 0
0.125 0 0
0.125 0 0
0.125 0 0
0.125 0 0
0.125 0 0
0.03125 0 0
0.03125 0 0
0.03125 0 0
0.03125 0 0
0.03125 0 0
0.03125 0 0
0.03125 0 0
0.03125 0 0
0.03125 0 0
0.03125 0 0
0.03125 0 0
0.03125 0 0
0.03125 0 0
0.03125 0 0
0.03125 0 0
0.03125 0 0
0.03125 0 0
0.125 0 0
0.125 0 0
0.125 0 0
0.125 0 0
0.125 0 0
0.125 0 0
0.125 0 0
0.125 0 0
0.125 0 0
0.125 0 0
0.03125 0 0
0.03125 0 0
0.03125 0 0
0.03125 0 0
0.03125 0 0
0.03125 0 0
0.03125 0 0
0.03125 0 0
0.03125 0 0
0.03125 0 0
0.03125 0 0
0.03125 0 0
0.03125 0 0
0.03125 0 0
0.03125 0 0
0.03125 0 0
0.03125 0 0
0.125 0 0
0.125 0 0
0.125 0 0
0.125 0 0
0.125 0 0
0.125 0 0
0.125 0 0
0.125 0 0
0.125 0 0
0.125 0 0
0.03125 0 0
0.03125 0 0
0.03125 0 0
0.03125 0 0
0.03125 0 0
0.03125 0 0
0.03125 0 0
0.03125 0 0
0.03125 0 0
0.03125 0 0
0.03125 0 0
0.03125 0 0
0.03125 0 0
0.03125 0 0
0.03125 0 0
0.03125 0 0
0.03125 0 0
0.125 0 0
0.125 0 0
0.125 0 0
0.125 0 0
0.125 0 0
0.125 0 0
0.125 0 0
0.125 0 0
0.125 0 0
0.125 0 0
0.03125 0 0
0.03125 0 0
0.03125 0 0
0.03125 0 0
0.03125 0 0
0.03125 0 0
0.03125 0 0
0.03125 0 0
0.03125 0 0
0.03125 0 0
0.03125 0 0
0.03125 0 0
0.03125 0 0
0.03125 0 0
0.03125 0 0
0.03125 0 0
0.03125 0 0
0.125 0 0
0.125 0 0
0.125 0 0
0.125 0 0
0.125 0 0
0.125 0 0
0.125 0 0
0.125 0 0
0.125 0 0
0.125 0 0
0.03125 0 0
0.03125 0 0
0.03125 0 0
0.03125 0 0
0.03125 0 0
0.03125 0 0
0.03125 0 0
0.03125 0 0
0.03125 0 0
0.03125 0 0
0.03125 0 0
0.03125 0 0
0.03125 0 0
0.03125 0 0
0.03125 0 0
0.03125 0 0
0.03125 0 0
0.125 0 0
0.125 0 0
0.125 0 0
0.125 0 0
0.125 0 0
0.125 0 0
0.125 0 0
0.03125 0 0
0.03125 0 0
0.03125 0 0
0.03125 0 0
0.03125 0 0
0.03125 0 0
0.03125 0 0
0.03125 0 0
0.03125 0 0
0.03125 0 0
0.03125 0 0
0.03125 0 0
0.03125 0 0
0.03125 0 0
0.03125 0 0
0.03125 0 0
0.03125 0 0
0.125 0 0
0.125 0 0
0.125 0 0
0.125 0 0
0.125 0 0
0.125 0 0
0.125 0 0
0.125 0 0
0.03125 0 0
0.03125 0 0
0.03125 0 0
0.03125 0 0
0.03125 0 0
0.03125 0 0
0.03125 0 0
0.03125 0 0
0.03125 0 0
0.03125 0 0
0.03125 0 0
0.03125 0 0
0.03125 0 0
0.03125 0 0
0.03125 0 0
0.03125 0 0
0.03125 0 0
0.125 0 0
0.125 0 0
0.125 0 0
0.125 0 0
0.125 0 0
0.125 0 0
0.125 0 0
0.03125 0 0
0.03125 0 0
0.03125 0 0
0.03125 0 0
0.03125 0 0
0.03125 0 0
0.03125 0 0
0.03125 0 0
0.03125 0 0
0.03125 0 0
0.03125 0 0
0.03125 0 0
0.03125 0 0
0.03125 0 0
0.03125 0 0
0.03125 0 0
0.03125 0 0
0.125 0 0
0.125 0 0
0.125 0 0
0.125 0 0
0.125 0 0
0.125 0 0
0.125 0 0
0.03125 0 0
0.03125 0 0
0.03125 0 0
0.03125 0 0
0.03125 0 0
0.03125 0 0
0.03125 0 0
0.03125 0 0
0.03125 0 0
0.03125 0 0
0.03125 0 0
0.03125 0 0
0.03125 0 0
0.03125 0 0
0.03125 0 0
0.03125 0 0
0.03125 0 0
0.125 0 0
0.125 0 0
0.125 0 0
0.125 0 0
0.125 0 0
0.125 0 0
0.125 0 0
0.03125 0 0
0.03125 0 0
0.03125 0 0
0.03125 0 0
0.03125 0 0
0.03125 0 0
0.03125 0 0
0.03125 0 0
0.03125 0 0
0.03125 0 0
0.03125 0 0
0.03125 0 0
0.03125 0 0
0.03125 0 0
0.03125 0 0
0.03125 0 0
0.03125 0 0
0.125 0 0
0.125 0 0
0.125 0 0
0.125 0 0
0.125 0 0
0.125 0 0
0.125 0 0
0.125 0 0
0.03125 0 0
0.03125 0 0
0.03125 0 0
0.03125 0 0
0.03125 0 0
0.03125 0 0
0.03125 0 0
0.03125 0 0
0.03125 0 0
0.03125 0 0
0.03125 0 0
0.03125 0 0
0.03125 0 0
0.03125 0 0
0.03125 0 0
0.03125 0 0
0.03125 0 0
0.125 0 0
0.125 0 0
0.125 0 0
0.125 0 0
0.125 0 0
0.125 0 0
0.125 0 0
0.03125 0 0
0.03125 0 0
0.03125 0 0
0.03125 0 0
0.03125 0 0
0.03125 0 0
0.03125 0 0
0.03125 0 0
0.03125 0 0
0.03125 0 0
0.03125 0 0
0.03125 0 0
0.03125 0 0
0.03125 0 0
0.03125 0 0
0.03125 0 0
0.03125 0 0
0.125 0 0
0.125 0 0
0.125 0 0
0.125 0 0
0.125 0 0
0.125 0 0
0.125 0 0
0.03125 0 0
0.03125 0 0
0.03125 0 0
0.03125 0 0
0.03125 0 0
0.03125 0 0
0.03125 0 0
0.03125 0 0
0.03125 0 0
0.03125 0 0
0.03125 0 0
0.03125 0 0
0.03125 0 0
0.03125 0 0
0.03125 0 0
0.125 0 0
0.125 0 0
0.125 0 0
0.125 0 0
0.125 0 0
0.125 0 0
0.125 0 0
0.03125 0 0
0.03125 0 0
0.03125 0 0
0.03125 0 0
0.03125 0 0
0.03125 0 0
0.03125 0 0
0.03125 0 0
0.03125 0 0
0.03125 0 0
0.03125 0 0
0.03125 0 0
0.03125 0 0
0.03125 0 0
0.03125 0 0
0.125 0 0
0.125 0 0
0.125 0 0
0.125 0 0
0.125 0 0
0.125 0 0
0.125 0 0
0.03125 0 0
0.03125 0 0
0.03125 0 0
0.03125 0 0
0.03125 0 0
0.03125 0 0
0.03125 0 0
0.03125 0 0
0.03125 0 0
0.03125 0 0
0.03125 0 0
0.03125 0 0
0.03125 0 0
0.03125 0 0
0.03125 0 0
0.125 0 0
0.125 0 0
0.125 0 0
0.125 0 0
0.125 0 0
0.125 0 0
0.125 0 0
0.125 0 0
0.03125 0 0
0.03125 0 0
0.03125 0 0
0.03125 0 0
0.03125 0 0
0.03125 0 0
0.03125 0 0
0.03125 0 0
0.03125 0 0
0.03125 0 0
0.03125 0 0
0.03125 0 0
0.03125 0 0
0.03125 0 0
0.03125 0 0
0.125 0 0
0.125 0 0
0.125 0 0
0.125 0 0
0.125 0 0
0.125 0 0
0.125 0 0
0.03125 0 0
0.03125 0 0
0.03125 0 0
0.03125 0 0
0.03125 0 0
0.03125 0 0
0.03125 0 0
0.03125 0 0
0.03125 0 0
0.03125 0 0
0.03125 0 0
0.03125 0 0
0.03125 0 0
0.03125 0 0
0.03125 0 0
0.125 0 0
0.125 0 0
0.125 0 0
0.125 0 0
0.125 0 0
0.125 0 0
0.125 0 0
0.03125 0 0
0.03125 0 0
0.03125 0 0
0.03125 0 0
0.03125 0 0
0.03125 0 0
0.03125 0 0
0.03125 0 0
0.03125 0 0
0.03125 0 0
0.03125 0 0
0.03125 0 0
0.03125 0 0
0.03125 0 0
0.03125 0 0
0.125 0 0
0.125 0 0
0.125 0 0
0.125 0 0
0.125 0 0
0.125 0 0
0.125 0 0
0.03125 0 0
0.03125 0 0
0.03125 0 0
0.03125 0 0
0.03125 0 0
0.03125 0 0
0.03125 0 0
0.03125 0 0
0.03125 0 0
0.03125 0 0
0.03125 0 0
0.03125 0 0
0.03125 0 0
0.03125 0 0
0.03125 0 0
0.125 0 0
0.125 0 0
0.125 0 0
0.125 0 0
0.125 0 0
0.125 0 0
0.125 0 0
0.125 0 0
0.03125 0 0
0.03125 0 0
0.03125 0 0
0.03125 0 0
0.03125 0 0
0.03125 0 0
0.03125 0 0
0.03125 0 0
0.03125 0 0
0.03125 0 0
0.03125 0 0
0.03125 0 0
0.03125 0 0
0.03125 0 0
0.03125 0 0
0.125 0 0
0.125 0 0
0.125 0 0
0.125 0 0
0.125 0 0
0.125 0 0
0.125 0 0
