Compiler and run-time data
===========================================================================
RASPA 2.0.37
Compiled as a 64-bits application
Compiler: gcc Intel(R) C++ gcc 4.8.5 mode
Compile Date = May 12 2020, Compile Time = 18:40:55

Sun Jun  6 21:31:35 2021
Simulation started on Sunday, June 06.
The start time was 09:31 PM.

Hostname:    The start time was 09:31 PM.
OS type:     The start time was 09:31 PM.
OS release:  The start time was 09:31 PM.
OS version:  The start time was 09:31 PM.

Simulation
===========================================================================
Dimensions: 3
Random number seed: 1623011495
RASPA directory set to: /mnt/iusers01/ceas01/m86397ah/Installed_software/RASPA
String appended to output-files: 
Number of cycles: 100000
Number of initializing cycles: 100000
Number of equilibration cycles: 0
Print every: 1000
Rectangular boundary condition applied
Timestep: 0.000500
	Degrees of freedom:                        0
	Translational Degrees of freedom:          0
	Rotational Degrees of freedom:             0
	Degrees of freedom Framework:              0


Mutual consistent basic set of units:
======================================
Unit of temperature: Kelvin
Unit of length:      1e-10 [m]
Unit of time:        1e-12 [s]
Unit of mass:        1.66054e-27 [kg]
Unit of charge:      1.60218e-19 [C/particle]

Derived units and their conversion factors:
===========================================
Unit of energy:              1.66054e-23 [J]
Unit of force:               1.66054e-13 [N]
Unit of pressure:            1.66054e+07 [Pa]
Unit of velocity:            100 [m/s]
Unit of acceleration:        1e-08 [m^2/s]
Unit of diffusion:           1e-08 [m^2/s]
Unit of dipole moment:       1.60218e-29 [C.m]
Unit of electric potential:  0.000103643 [V]
Unit of electric field:      1.03643e+06 [V]
Unit of polarizability:      1.54587e-35 [-]
Unit of Coulomb potential:   167101.0800066561  [K]
Unit of dielectric constant: 0.0000154587       [s^2 C^2/(kg m^3)]
Unit of wave vectors:        5.3088374589       [cm^1]
Boltzmann constant:          0.8314464919       [-]

Internal conversion factors:
===========================================
Energy to Kelvin:                                    1.2027242847
FH correction factor                                 2.0211930949
Heat capacity conversion factor:                    10.0000088723
From Debye to internal units:                        4.8032067991
Isothermal compressibility conversion factor:        0.0000000602

Energy conversion factors:
===========================================
From mdyne/A to kcal/mol/A^2:           143.933
From mdyne/A to kj/mol/A^2:             602.214
From mdyne/A to K/A^2:                  72429.7
From mdyne A/rad^2 to kcal/mol/deg^2:   0.0438444


Properties computed
===========================================================================
Movies: yes
	Movie snapshots are appended to file every 1000 cycles
Radial Distribution Function: no
Number of molecules GCMC histogram: no
Histogram of the molecule positions: no
Free energy profiles: no
Pore Size Distribution Function: no
End-to-end distance: no
Histogram of the energy of the system: no
Compute thermodynamic factors: no
Framework spacing histograms: no
Residence times histograms: no
Distance histograms: no
Bend Angle histograms: no
Dihedral angle histograms: no
Angle between planes histograms: no
Molecule properties: no
Infra-red spectra: no
Mean-squared displacement using modified order-N algorithm: no
Velocity-autocorrelation function modified order-N algorithm: no
Rotational velocity-autocorrelation function modified order-N algorithm: no
Molecular orientation-autocorrelation function modified order-N algorithm: no
Bond orientation-autocorrelation function modified order-N algorithm: no
Mean-squared displacement (conventional algorithm): no
Velocity-autocorrelation function (conventional algorithm): no
3D density grid for adsorbates: no
Compute cation an/or adsorption sites: no
dcTST snapshots: no
Compute pressure and stress: no


VTK
===========================================================================
VTK fractional-range position framework atoms: [-0.001000,1.001000] [-0.001000,1.001000] [-0.001000,1.001000]
VTK fractional-range position framework bonds: [-0.151000,1.151000] [-0.151000,1.151000] [-0.151000,1.151000]
VTK fractional-range com-position adsorbate molecules: [-0.101000,1.101000] [-0.101000,1.101000] [-0.101000,1.101000]
VTK fractional-range com-position cation molecules: [-0.101000,1.101000] [-0.101000,1.101000] [-0.101000,1.101000]
	3D free energy grid made for the full simulation-cell


Thermo/Baro-stat NHC parameters
===========================================================================
External temperature: 87 [K]
Beta: 0.0138244 [energy unit]
External Pressure: 101325 [Pa]


Thermostat chain-length: 3
Timescale parameter for thermostat: 0.150000 [ps]
Barostat chain-length:   3
Timescale parameter for barostat:   0.150000 [ps]

Number of Yoshida-Suzuki decomposition steps: 5
Number of respa steps: 5


Method and settings for electrostatics
===============================================================================
Dielectric constant of the medium : 1.000000
Charge from charge-equilibration: no
Ewald summation is used (exact solution of a periodic system)
Relative precision                : 1e-06
Alpha convergence parameter       : 0.265058
kvec (x,y,z)                      : 8 8 8


CFC-RXMC parameters
===========================================================================
Number of reactions: 0


Rattle parameters
===========================================================================
Distance constraint type: r^2-r^2_0
Bend angle constraint type: theta-theta_0
Dihedral angle constraint type: phi-phi_0
Inversion-bend angle constraint type: chi-chi_0
Out-of-plane distance constraint type: r-r_0


Spectra parameters
===========================================================================
Compute normal modes: no


Minimization parameters
===========================================================================
Generalized coordinates are: Cartesian center-of-mass, elements of the orientational matrix p1,p2,p3 and strain
Potential derivatives are evaluated: analytically
Translation of the system is removed from the generalized Hessian: no
Rotation of the system is removed from the generalized Hessian: no
Maximum step-length: 0.3
Convergence factor: 1
Maximum number of minimization steps: 10000
Use gradients in the line-minimizations: yes
RMS gradient tolerance: 1e-06
Maximum gradient tolerance: 1e-06

Distance constraints: 0
Angle constraints: 0
Dihedral constraints: 0

Improper dihedral constraints: 0

Inversion-bend constraints: 0

Out-of-plane constraints: 0

Harmonic distance constraints: 0
Harmonic angle constraints: 0
Harmonic dihedral constraints: 0

Dihedral mid-point measurements: 0

All framework atoms are fixed

Fixed adsorbate atoms:  
Fixed adsorbate groups (center-of-mass):  
Fixed adsorbate groups (orientation):  

Fixed cation atoms:  
Fixed cation groups (center-of-mass):  
Fixed cation groups (orientation):  


dcTST parameters
===========================================================================
Free energy profiles computed: no
Free energy profiles written every 5000 cycles
Free energy mapping: mapped to a,b,c-coordinates
BarrierPosition:       0.0000000000       0.0000000000       0.0000000000
BarrierNormal:         0.0000000000       0.0000000000       0.0000000000
Start with a molecule on top of the barrier: no
Maximum distance to barrier (e.g. distance to minumum free energy):       0.0000000000 [A]
Maximum trajectory time:      10.0000000000 [ps]
Each configuration is used with 5 different initial velocities


Cbmc parameters
===========================================================================
Biasing method: using only the VDW part
Number of trial positions:                                       10
Number of trial positions (reinsertion):                         10
Number of trial positions (partial reinsertion):                 10
Number of trial positions (identity-change):                     10
Number of trial positions (Gibbs particle transfer):             10
Number of trial positions (insertion/deletion):                  10
Number of trial positions (Widom insertion):                     10
Number of trial positions coupled Torsion-selection:             100
Number of trial positions first bead:                            10
Number of trial positions first bead (reinsertion):              10
Number of trial positions first bead (partial reinsertion):      10
Number of trial positions first bead (identity-change):          10
Number of trial positions first bead (Gibbs particle transfer):  10
Number of trial positions first bead (insertion/deletion):       10
Number of trial positions first bead (Widom insertion):          10
Number of trial moves per open bead:                             150
Target acceptance ratio small-mc scheme:                         0.400000
Energy overlap criteria:                                         1e+07
Minimal Rosenbluth factor:                                       1e-150


Pseudo atoms: 7
===========================================================================
Pseudo Atom[   0] Name UNIT     Oxidation:          Element: H    pdb-name: H    Scat. Types:   1   1 Mass=1.000000000  B-factor:0.000   
                 Charge=1.000000000          Polarization=0.000000000  [A^3] (considered a charged atom and no polarization)  Interactions: yes
                 Anisotropic factor:    0.000 [-] (Absolute), Radius:    1.000 [A], Framework-atom:  no
Pseudo Atom[   1] Name DUMMY    Oxidation: +0       Element: H    pdb-name: H    Scat. Types:   1   1 Mass=1.000000000  B-factor:1.000   
                 Charge=0.000000000          Polarization=0.000000000  [A^3] (considered a chargeless atom and no polarization)  Interactions:  no
                 Anisotropic factor:    0.000 [-] (Absolute), Radius:    1.000 [A], Framework-atom:  no
Pseudo Atom[   2] Name He       Oxidation: +0       Element: He   pdb-name: He   Scat. Types:   3   2 Mass=4.002602000  B-factor:1.000   
                 Charge=0.000000000          Polarization=0.000000000  [A^3] (considered a chargeless atom and no polarization)  Interactions: yes
                 Anisotropic factor:    0.000 [-] (Absolute), Radius:    1.000 [A], Framework-atom:  no
Pseudo Atom[   3] Name Ar       Oxidation: +0       Element: Ar   pdb-name: Ar   Scat. Types:  19  18 Mass=39.948000000 B-factor:1.000   
                 Charge=0.000000000          Polarization=0.000000000  [A^3] (considered a chargeless atom and no polarization)  Interactions: yes
                 Anisotropic factor:    0.000 [-] (Absolute), Radius:    1.000 [A], Framework-atom:  no
Pseudo Atom[   4] Name T        Oxidation: +0       Element: Si   pdb-name: Si   Scat. Types:  15  14 Mass=28.085500000 B-factor:1.000   
                 Charge=0.000000000          Polarization=0.000000000  [A^3] (considered a chargeless atom and no polarization)  Interactions: yes
                 Anisotropic factor:    0.000 [-] (Absolute), Radius:    1.180 [A], Framework-atom: yes (charge from pseudo-atoms file)
Pseudo Atom[   5] Name Al       Oxidation: +0       Element: Al   pdb-name: Al   Scat. Types:  14  13 Mass=26.981539000 B-factor:1.000   
                 Charge=0.000000000          Polarization=0.000000000  [A^3] (considered a chargeless atom and no polarization)  Interactions: yes
                 Anisotropic factor:    0.000 [-] (Absolute), Radius:    1.180 [A], Framework-atom:  no
Pseudo Atom[   6] Name O        Oxidation: +0       Element: O    pdb-name: O    Scat. Types:   9   8 Mass=15.999400000 B-factor:1.000   
                 Charge=0.000000000          Polarization=0.000000000  [A^3] (considered a chargeless atom and no polarization)  Interactions: yes
                 Anisotropic factor:    0.000 [-] (Absolute), Radius:    0.500 [A], Framework-atom: yes (charge from pseudo-atoms file)


Forcefield: local
===========================================================================
Minimal distance: 1
CutOff VDW : 12.800000 (163.840000)
CutOff VDW switching on: 11.520000 (132.710400)
CutOff charge-charge : 12.000000 (144.000000)
CutOff charge-charge switching on: 7.800000 (60.840000)
CutOff charge-bonddipole : 12.000000 (144.000000)
CutOff charge-bondipole switching on: 8.400000 (70.560000)
CutOff bonddipole-bonddipole : 12.000000 (144.000000)
CutOff bonddipole-bondipole switching on: 9.000000 (81.000000)
Polarization is neglected
All potentials are unshifted !!!!!!

General mixing rule: Lorentz-Berthelot mixing rules are used FIRST for cross terms
0 cross terms are overwritten using the individual mixing rules from the file 'force_field_mixing_rules.def'
and then 0 terms are overwritten using the specific interactions from the file 'force_field.def'

The force field and all the interactions:
     He -      He [LENNARD_JONES] p_0/k_B:  10.22000 [K], p_1: 2.58000 [A], shift/k_B:   0.00000000 [K], tailcorrection: no
     He -      Ar [LENNARD_JONES] p_0/k_B:  34.99080 [K], p_1: 2.99000 [A], shift/k_B:   0.00000000 [K], tailcorrection: no
     He -       T [LENNARD_JONES] p_0/k_B:  45.45298 [K], p_1: 3.20300 [A], shift/k_B:   0.00000000 [K], tailcorrection: no
     He -      Al [LENNARD_JONES] p_0/k_B:  50.94376 [K], p_1: 3.29400 [A], shift/k_B:   0.00000000 [K], tailcorrection: no
     He -       O [LENNARD_JONES] p_0/k_B:  17.56827 [K], p_1: 2.84900 [A], shift/k_B:   0.00000000 [K], tailcorrection: no
     Ar -      Ar [LENNARD_JONES] p_0/k_B: 119.80000 [K], p_1: 3.40000 [A], shift/k_B:   0.00000000 [K], tailcorrection: no
     Ar -       T [LENNARD_JONES] p_0/k_B: 155.61995 [K], p_1: 3.61300 [A], shift/k_B:   0.00000000 [K], tailcorrection: no
     Ar -      Al [LENNARD_JONES] p_0/k_B: 174.41907 [K], p_1: 3.70400 [A], shift/k_B:   0.00000000 [K], tailcorrection: no
     Ar -       O [LENNARD_JONES] p_0/k_B:  60.14948 [K], p_1: 3.25900 [A], shift/k_B:   0.00000000 [K], tailcorrection: no
      T -       T [LENNARD_JONES] p_0/k_B: 202.15000 [K], p_1: 3.82600 [A], shift/k_B:   0.00000000 [K], tailcorrection: no
      T -      Al [LENNARD_JONES] p_0/k_B: 226.57001 [K], p_1: 3.91700 [A], shift/k_B:   0.00000000 [K], tailcorrection: no
      T -       O [LENNARD_JONES] p_0/k_B:  78.13405 [K], p_1: 3.47200 [A], shift/k_B:   0.00000000 [K], tailcorrection: no
     Al -      Al [LENNARD_JONES] p_0/k_B: 253.94000 [K], p_1: 4.00800 [A], shift/k_B:   0.00000000 [K], tailcorrection: no
     Al -       O [LENNARD_JONES] p_0/k_B:  87.57276 [K], p_1: 3.56300 [A], shift/k_B:   0.00000000 [K], tailcorrection: no
      O -       O [LENNARD_JONES] p_0/k_B:  30.20000 [K], p_1: 3.11800 [A], shift/k_B:   0.00000000 [K], tailcorrection: no


MoleculeDefinitions:
===========================================================================
Component 0 [argon] (Adsorbate molecule)

	MoleculeDefinitions: argon
	Component contains no atoms with charge
	Component contains no atoms with point dipoles (polarization)
	Component has a net charge of 0.000000

	Ideal chain Rosenbluth weight: 1
	Ideal chain total energy: 0.000000

	Critical temparure [K]: 154.580000
	Critical pressure [Pa]: 5043000.000000
	Acentric factor [-]: 0.000000

	RXMC partition factor ln(q/V) [ln(A^(-3))]:       0.0000000000

	Liquid=stable, Vapour=metastable

	MolFraction:           1.0000000000 [-]
	Compressibility:       0.0034503778 [-]

	Density of the bulk fluid phase:    1621.7781374247 [kg/m^3]

	Binary mixture EOS parameters:  (0): 0.000000

	Amount of excess molecules:       0.0000000000 [-]

	Conversion factor molecules/unit cell -> mol/kg:       2.0804103568 [-]
	Conversion factor molecules/unit cell -> mg/g:      83.1082329327 [-]
	Conversion factor molecules/unit cell -> cm^3 STP/gr:      46.6302672820 [-]
	Conversion factor molecules/unit cell -> cm^3 STP/cm^3:      82.4069917299 [-]
	Conversion factor mol/kg -> cm^3 STP/gr:      22.4139757476 [-]
	Conversion factor mol/kg -> cm^3 STP/cm^3:      39.6109313056 [-]

	Partial pressure:    101325.00000000000000 [Pa]
	                        759.93750000000000 [Torr]
	                          1.01325000000000 [bar]
	                          1.00000000000000 [atm]

	Fugacity coefficient:       1.0000000000 [-]

	Partial fugacity:    101325.00000000000000 [Pa]
	                        759.93750000000000 [Torr]
	                          1.01325000000000 [bar]
	                          1.00000000000000 [atm]

	Molecule contains 1 number of atoms
		atom:    0  is of type:    3 [        Ar] (group: 0)

	Molecule contains 0 chirality centers

	Molecule contains 1 number of groups

		group: 0 containing: 1 elements
		-------------------------------------------------
		the group is modelled as flexible, i.e. no constraints
		Mass: 39.948000 [a.u.]
		Mass: 3.059843 [kg/m^3]

		Rotational Degrees of freedom: 0
		Diagonalized inertia vector:       0.0000000000
		                                   0.0000000000
		                                   0.0000000000
		element: 0 atom: 0 [        Ar] Charge:  0.000000 Anisotropy: 0.000000 Connectivity: 0 ()

		Dipole:           0.0000000000 [D]
		Quadrupole:       0.0000000000       0.0000000000       0.0000000000 [D Angstrom]
		Quadrupole tensor [D Angstrom]
				       0.0000000000       0.0000000000       0.0000000000
				       0.0000000000       0.0000000000       0.0000000000
				       0.0000000000       0.0000000000       0.0000000000

	Starting bead for growth               : 0

	Degrees of freedom                     : 0
	Translational degrees of freedom       : 0
	Rotational degrees of freedom          : 0
	Vibrational degrees of freedom         : 0
	Constraint degrees of freedom          : 0

	Number of atoms                        : 1

	Number of constraint bonds             : 0
	Number of constraint bends             : 0
	Number of constraint inversion bends   : 0
	Number of constraint torsions          : 0
	Number of constraint improper torsions : 0
	Number of constraint improper torsions : 0

	Number of bonds                        : 0
	Number of Urey-Bradleys                : 0
	Number of bends                        : 0
	Number of inversion bends              : 0
	Number of torsions                     : 0
	Number of improper torsions            : 0
	Number of improper torsions            : 0

	Number of bond/bond cross terms        : 0
	Number of bond/bend cross terms        : 0
	Number of bend/bend cross terms        : 0
	Number of stretch/torsion cross terms  : 0
	Number of bend/torsion cross terms     : 0

	Number of charges                      : 0
	Number of bond-dipoles                 : 0

	Number of intra Van der Waals                             : 0
	Number of intra charge-charge Coulomb                     : 0
	Number of intra charge-bonddipole Coulomb                 : 0
	Number of intra bonddipole-bonddipole Coulomb             : 0

	Number of excluded intra charge-charge Coulomb                     : 0
	Number of excluded intra charge-bonddipole Coulomb                 : 0
	Number of excluded intra bonddipole-bonddipole Coulomb             : 0

	Number of cbmc-config moves                               : 0

	Particle Moves:             
		ProbabilityTranslationMove:                  20.000000
			TranslationDirection:      XYZ
		Percentage of random translation moves:            0.000000
		Percentage of rotation moves:                      20.000000
		Percentage of random rotation moves:               0.000000
		Percentage of partial reinsertion moves:           0.000000
		Percentage of reinsertion moves:                   20.000000
		Percentage of reinsertion-in-place moves:          0.000000
		Percentage of reinsertion-in-plane moves:          0.000000
		Percentage of identity-change moves:               0.000000
		Percentage of swap (insert/delete) moves:          40.000000
		Percentage of CF swap lambda moves:                0.000000
		Percentage of CB/CFMC swap lambda moves:           0.000000
		Percentage of Widom insertion moves:               0.000000
		Percentage of CF-Widom insertion moves:            0.000000
		Percentage of Gibbs Widom insertion moves:         0.000000
		Percentage of surface-area moves:                  0.000000
		Percentage of Gibbs particle-transfer moves:       0.000000
		Percentage of Gibbs identity-change moves:         0.000000
		Percentage of CF Gibbs lambda-transfer moves:      0.000000
		Percentage of CB/CFMC Gibbs lambda-transfer moves: 0.000000
		Percentage of exchange frac./int. particle moves:  0.000000
		Percentage of fractional mol. to other box moves:  0.000000
		Percentage of lambda-change moves:                 0.000000
		Percentage of fractional to integer moves:         0.000000

	System Moves:
		Percentage of parallel-tempering moves:            0.000000
		Percentage of hyper-parallel-tempering moves:      0.000000
		Percentage of parallel-mol-fraction moves:         0.000000
			   Component A: 0 B: 1
		Percentage of chiral inversion moves:              0.000000
		Percentage of Hybrid-NVE moves:                    0.000000
		Percentage of Hybrid-NPH moves:                    0.000000
		Percentage of Hybrid-NPHPR moves:                  0.000000
		Percentage of volume-change moves:                 0.000000
		Percentage of box-shape-change moves:              0.000000
		Percentage of Gibbs volume-change moves:           0.000000
		Percentage of framework-change moves:              0.000000
		Percentage of framework-shift moves:               0.000000
		Percentage of reactive MC moves:                   0.000000

	Moves are restricted: No
	No biased sampling used for this component


	number of identity-config changes: 1
	--------------------------------------------
	nr fixed 1: 0 

	Number of pockets blocked in a unitcell: 0
		Pockets are NOT blocked for this component



Framework Status
===========================================================================
Lowenstein's rule obeyed by framework
	Framework is modelled as: rigid

	Number of charges:                               0
	Number of bonddipoles:                           0


System Properties
===========================================================================
Unit cell size: 7.075000 7.075000 9.023000
Cell angles (radians)  alpha: 1.570796 beta: 1.570796 gamma: 1.570796
Cell angles (degrees)  alpha: 90.000000 beta: 90.000000 gamma: 90.000000
Number of unitcells [a]: 4
Number of unitcells [b]: 4
Number of unitcells [c]: 3

RECTANGULAR Boundary conditions: alpha=beta=gamma=90 degrees

Cartesian axis A is collinear with crystallographic axis a
Cartesian axis B is collinear with (axb)xA
Cartesian axis C is collinear with (axb)

lengths of cell vectors:
 28.30000  28.30000  27.06900
cosines of cell angles:
  0.00000   0.00000   0.00000
perpendicular cell widths:
 28.30000  28.30000  27.06900
volume of the cell: 21679.291409999998 (A^3)

Orthogonalization matrix Box
Transforms fractional coordinates abc into orthonormal Cartesian coordinates xyz
Deorthogonalization matrix InverseBox
Transforms orthonormal Cartesian coordinates xyz into fractional coordinates xyz

Box[0]:
	   28.300000000000     0.000000000000     0.000000000000
	    0.000000000000    28.300000000000     0.000000000000
	    0.000000000000     0.000000000000    27.069000000000

Inverse box[0]:
	    0.035335689046    -0.000000000000    -0.000000000000
	    0.000000000000     0.035335689046    -0.000000000000
	    0.000000000000     0.000000000000     0.036942628099


Unitcell box[0]:
	    7.075000000000     0.000000000000     0.000000000000
	    0.000000000000     7.075000000000     0.000000000000
	    0.000000000000     0.000000000000     9.023000000000

Unitcell inverse box[0]:
	    0.141342756184    -0.000000000000    -0.000000000000
	    0.000000000000     0.141342756184    -0.000000000000
	    0.000000000000     0.000000000000     0.110827884296

lengths of cell vectors (inverse box):
  0.03534   0.03534   0.03694
cosines of cell angles (inverse box):
 -0.00000  -0.00000  -0.00000
perpendicular cell widths (inverse):
  0.03534   0.03534   0.03694
volume of the cell: 21679.291409999998 (A^3)

No replicas are used
Framework is simulated as 'rigid'
Number of framework atoms: 1152
Number of framework atoms in the unit cell: 24
Framework Mass: 23072.371200000289 [g/mol]
Framework Density:  1767.242534373775 [kg/m^3]    0.5658532886966 [cm^3/g]
Helium void fraction:    0.00000000
Available pore volume:    0.00000000 [A^3]    0.00000000 [cm^3/g]
Conversion factor from molecule/unit cell -> kmol/m^3: 0.0765956, kmol/m^3 accesible pore volume: inf

Number Of Frameworks (per system): 1
----------------------------------------------------------------------
Framework name: zeolite
Space group: 131
	Identifier: 412
	short international Hermann-Mauguin symbol: P 42/m m c
	long international Hermann-Mauguin symbol: P 42/m 2/m 2/c
	Hall symbol: -P 4c 2
	Number of lattice translations: 1 [ (0,0,0) ]
	acentric/centric: acentric
	chiral: yes
	enantiomorphic: no
	number of operators: 16
		'x,y,z'
		'-x,-y,z'
		'-y,x,z+1/2'
		'y,-x,z+1/2'
		'-x,y,-z'
		'x,-y,-z'
		'y,x,-z+1/2'
		'-y,-x,-z+1/2'
		'-x,-y,-z'
		'x,y,-z'
		'y,-x,-z+1/2'
		'-y,x,-z+1/2'
		'x,-y,z'
		'-x,y,z'
		'-y,-x,z+1/2'
		'y,x,z+1/2'
Framework is simulated as 'rigid'
Shift: 0.000000 0.000000 0.000000
Number of framework atoms: 1152
Number of asymmetric atoms: 4
Number of free framework atoms: 0
Number of fixed framework atoms: 1152
Number of framework atoms in the unit cell: 24
Framework Mass: 23072.371200000289 [g/mol]
Framework Density:  1767.242534373775 [kg/m^3]
Framework has net charge: 0.000000
         largest charge : 0.000000
         smallest charge: 0.000000

Using FULL Host-guest interaction calculation (for testing purposes)

Current Atom Status
===========================================================================
Number of framework atoms        : 1152
Number of cations molecules      : 0
Number of adsorbate molecules    : 0
Component    0 :    0 molecules
Pseudo Atoms    0 [    UNIT]:    0 atoms
Pseudo Atoms    1 [   DUMMY]:    0 atoms
Pseudo Atoms    2 [      He]:    0 atoms
Pseudo Atoms    3 [      Ar]:    0 atoms
Pseudo Atoms    4 [       T]:  384 atoms
Pseudo Atoms    5 [      Al]:    0 atoms
Pseudo Atoms    6 [       O]:  768 atoms


Current (initial full energy) Energy Status
===========================================================================

Internal energy:
Host stretch energy:                                            0.00000000
Host UreyBradley energy:                                        0.00000000
Host bend energy:                                               0.00000000
Host inversion-bend energy:                                     0.00000000
Host torsion energy:                                            0.00000000
Host improper torsion energy:                                   0.00000000
Host out-of-plane energy:                                       0.00000000
Host stretch/stretch energy:                                    0.00000000
Host bend/bend energy:                                          0.00000000
Host stretch/bend energy:                                       0.00000000
Host stretch/torsion energy:                                    0.00000000
Host bend/torsion energy:                                       0.00000000

Adsorbate stretch energy:                                       0.00000000
Adsorbate UreyBradley energy:                                   0.00000000
Adsorbate bend energy:                                          0.00000000
Adsorbate inversion-bend energy:                                0.00000000
Adsorbate torsion energy:                                       0.00000000
Adsorbate improper torsion energy:                              0.00000000
Adsorbate out-of-plane energy:                                  0.00000000
Adsorbate stretch/stretch energy:                               0.00000000
Adsorbate bend/bend energy:                                     0.00000000
Adsorbate stretch/bend energy:                                  0.00000000
Adsorbate stretch/torsion energy:                               0.00000000
Adsorbate bend/torsion energy:                                  0.00000000
Adsorbate intra VDW energy:                                     0.00000000
Adsorbate intra charge-charge Coulomb energy:                   0.00000000
Adsorbate intra charge-bonddipole Coulomb energy:               0.00000000
Adsorbate intra bonddipole-bonddipole Coulomb energy:           0.00000000

Cation stretch energy:                                          0.00000000
Cation UreyBradley energy:                                      0.00000000
Cation bend energy:                                             0.00000000
Cation inversion-bend energy:                                   0.00000000
Cation torsion energy:                                          0.00000000
Cation improper torsion energy:                                 0.00000000
Cation out-of-plane energy:                                     0.00000000
Cation stretch/stretch energy:                                  0.00000000
Cation bend/bend energy:                                        0.00000000
Cation stretch/bend energy:                                     0.00000000
Cation stretch/torsion energy:                                  0.00000000
Cation bend/torsion energy:                                     0.00000000
Cation intra VDW energy:                                        0.00000000
Cation intra charge-charge Coulomb energy:                      0.00000000
Cation intra charge-bonddipole Coulomb energy:                  0.00000000
Cation intra bonddipole-bonddipole Coulomb energy:              0.00000000

Host/Host energy:                                             0.00000000
	Host/Host VDW energy:                                         0.00000000
	Host/Host Coulomb energy:                                     0.00000000
	Host/Host charge-charge Real energy:                          0.00000000
	Host/Host charge-charge Fourier energy:                       0.00000000
	Host/Host charge-bonddipole Real energy:                      0.00000000
	Host/Host charge-bonddipole Fourier energy:                   0.00000000
	Host/Host bondipole-bonddipole Real energy:                   0.00000000
	Host/Host bondipole-bonddipole Fourier energy:                0.00000000

Host/Adsorbate energy:                                        0.00000000
	Host/Adsorbate VDW energy:                                    0.00000000
	Host/Adsorbate Coulomb energy:                                0.00000000
	Host/Adsorbate charge-charge Real energy:                     0.00000000
	Host/Adsorbate charge-charge Fourier energy:                  0.00000000
	Host/Adsorbate charge-bonddipole Real energy:                 0.00000000
	Host/Adsorbate charge-bonddipole Fourier energy:              0.00000000
	Host/Adsorbate bondipole-bonddipole Real energy:              0.00000000
	Host/Adsorbate bondipole-bonddipole Fourier energy:           0.00000000

Host/Cation energy:                                           0.00000000
	Host/Cation VDW energy:                                       0.00000000
	Host/Cation Coulomb energy:                                   0.00000000
	Host/Cation charge-charge Real energy:                        0.00000000
	Host/Cation charge-charge Fourier energy:                     0.00000000
	Host/Cation charge-bonddipole Real energy:                    0.00000000
	Host/Cation charge-bonddipole Fourier energy:                 0.00000000
	Host/Cation bondipole-bonddipole Real energy:                 0.00000000
	Host/Cation bondipole-bonddipole Fourier energy:              0.00000000

Adsorbate/Adsorbate energy:                                        0.00000000
	Adsorbate/Adsorbate VDW energy:                                    0.00000000
	Adsorbate/Adsorbate Coulomb energy:                                0.00000000
	Adsorbate/Adsorbate charge-charge Real energy:                     0.00000000
	Adsorbate/Adsorbate charge-charge Fourier energy:                  0.00000000
	Adsorbate/Adsorbate charge-bonddipole Real energy:                 0.00000000
	Adsorbate/Adsorbate charge-bonddipole Fourier energy:              0.00000000
	Adsorbate/Adsorbate bondipole-bonddipole Real energy:              0.00000000
	Adsorbate/Adsorbate bondipole-bonddipole Fourier energy:           0.00000000

Adsorbate/Cation energy:                                           0.00000000
	Adsorbate/Cation VDW energy:                                       0.00000000
	Adsorbate/Cation Coulomb energy:                                   0.00000000
	Adsorbate/Cation charge-charge Real energy:                        0.00000000
	Adsorbate/Cation charge-charge Fourier energy:                     0.00000000
	Adsorbate/Cation charge-bonddipole Real energy:                    0.00000000
	Adsorbate/Cation charge-bonddipole Fourier energy:                 0.00000000
	Adsorbate/Cation bondipole-bonddipole Real energy:                 0.00000000
	Adsorbate/Cation bondipole-bonddipole Fourier energy:              0.00000000

Cation/Cation energy:                                           0.00000000
	Cation/Cation VDW energy:                                       0.00000000
	Cation/Cation Coulomb energy:                                   0.00000000
	Cation/Cation charge-charge Real energy:                        0.00000000
	Cation/Cation charge-charge Fourier energy:                     0.00000000
	Cation/Cation charge-bonddipole Real energy:                    0.00000000
	Cation/Cation charge-bonddipole Fourier energy:                 0.00000000
	Cation/Cation bondipole-bonddipole Real energy:                 0.00000000
	Cation/Cation bondipole-bonddipole Fourier energy:              0.00000000

Polarization energy:
	Host polarization energy:                                     0.00000000
	Adsorbate polarization energy:                                0.00000000
	Cation polarization energy:                                   0.00000000
	Host back-polarization energy:                                     0.00000000
	Adsorbate back-polarization energy:                                0.00000000
	Cation back-polarization energy:                                   0.00000000

Tail-correction energy:                                       0.00000000

Distance constraints energy:                                  0.00000000
Angle constraints energy:                                     0.00000000
Dihedral constraints energy:                                  0.00000000
Inversion-bend constraints energy:                            0.00000000
Out-of-plane distance constraints energy:                     0.00000000
Exclusion constraints energy:                                 0.00000000

===================================================================
Total energy:     0.000000000000
	Total Van der Waals: 0.000000
	Total Coulomb: 0.000000

	Total Polarization: 0.000000







+++++++++++++++++++++++++++++++++++++++++++++++++++++++++++++++++++++++++
Starting simulation
+++++++++++++++++++++++++++++++++++++++++++++++++++++++++++++++++++++++++

[Init] Current cycle: 0 out of 100000
========================================================================================================

Net charge: 0 (F: 0, A: 0, C: 0)
Current Box:  28.30000   0.00000   0.00000 [A]
               0.00000  28.30000   0.00000 [A]
               0.00000   0.00000  27.06900 [A]
Box-lengths:  28.30000  28.30000  27.06900 Box-angles:   90.00000  90.00000  90.00000 [degrees]
Volume: 21679.29141 [A^3]

Loadings per component:
----------------------------------------------------------------------------------------------------------------------------------------------------
Component 0 (argon), current number of integer/fractional/reaction molecules: 0/0/0, density:   0.00000 [kg/m^3]
	absolute adsorption:   0.00000 [mol/uc],         0.0000 [mol/kg],              0.0000 [mg/g]
	                                                 0.0000 [cm^3 STP/g],          0.0000 [cm^3 STP/cm^3]
	excess adsorption:     0.00000 [mol/uc],         0.0000 [mol/kg],              0.0000 [mg/g]
	                                                 0.0000 [cm^3 STP/g],          0.0000 [cm^3 STP/cm^3]
----------------------------------------------------------------------------------------------------------------------------------------------------
Degrees of freedom: 0 0 0 0
Number of Framework-atoms:   1152
Number of Adsorbates:           0 (0 integer, 0 fractional, 0 reaction)
Number of Cations:              0 (0 integer, 0 fractional, 0 reaction

Current total potential energy:                 0.0000000000 [K]
	Current Host-Host energy:                     0.0000000000 [K]
	Current Host-Adsorbate energy:                0.0000000000 [K]
	Current Host-Cation energy:                   0.0000000000 [K]
	Current Adsorbate-Adsorbate energy:           0.0000000000 [K]
	Current Cation-Cation energy:                 0.0000000000 [K]
	Current Adsorbate-Cation energy:              0.0000000000 [K]



[Init] Current cycle: 1000 out of 100000
========================================================================================================

Net charge: 0 (F: 0, A: 0, C: 0)
Current Box:  28.30000   0.00000   0.00000 [A]
               0.00000  28.30000   0.00000 [A]
               0.00000   0.00000  27.06900 [A]
Box-lengths:  28.30000  28.30000  27.06900 Box-angles:   90.00000  90.00000  90.00000 [degrees]
Volume: 21679.29141 [A^3]

Loadings per component:
----------------------------------------------------------------------------------------------------------------------------------------------------
Component 0 (argon), current number of integer/fractional/reaction molecules: 105/0/0, density: 321.28367 [kg/m^3]
	absolute adsorption:   2.18750 [mol/uc],         4.5509 [mol/kg],            181.7993 [mg/g]
	                                               102.0037 [cm^3 STP/g],        180.2653 [cm^3 STP/cm^3]
	excess adsorption:     2.18750 [mol/uc],         4.5509 [mol/kg],            181.7993 [mg/g]
	                                               102.0037 [cm^3 STP/g],        180.2653 [cm^3 STP/cm^3]
----------------------------------------------------------------------------------------------------------------------------------------------------
Degrees of freedom: 315 0 315 0
Number of Framework-atoms:   1152
Number of Adsorbates:         105 (105 integer, 0 fractional, 0 reaction)
Number of Cations:              0 (0 integer, 0 fractional, 0 reaction

Current total potential energy:           -359915.2664779229 [K]
	Current Host-Host energy:                     0.0000000000 [K]
	Current Host-Adsorbate energy:          -350582.5694780606 [K]
	Current Host-Cation energy:                   0.0000000000 [K]
	Current Adsorbate-Adsorbate energy:       -9332.6969998604 [K]
	Current Cation-Cation energy:                 0.0000000000 [K]
	Current Adsorbate-Cation energy:              0.0000000000 [K]



[Init] Current cycle: 2000 out of 100000
========================================================================================================

Net charge: 0 (F: 0, A: 0, C: 0)
Current Box:  28.30000   0.00000   0.00000 [A]
               0.00000  28.30000   0.00000 [A]
               0.00000   0.00000  27.06900 [A]
Box-lengths:  28.30000  28.30000  27.06900 Box-angles:   90.00000  90.00000  90.00000 [degrees]
Volume: 21679.29141 [A^3]

Loadings per component:
----------------------------------------------------------------------------------------------------------------------------------------------------
Component 0 (argon), current number of integer/fractional/reaction molecules: 106/0/0, density: 324.34351 [kg/m^3]
	absolute adsorption:   2.20833 [mol/uc],         4.5942 [mol/kg],            183.5307 [mg/g]
	                                               102.9752 [cm^3 STP/g],        181.9821 [cm^3 STP/cm^3]
	excess adsorption:     2.20833 [mol/uc],         4.5942 [mol/kg],            183.5307 [mg/g]
	                                               102.9752 [cm^3 STP/g],        181.9821 [cm^3 STP/cm^3]
----------------------------------------------------------------------------------------------------------------------------------------------------
Degrees of freedom: 318 0 318 0
Number of Framework-atoms:   1152
Number of Adsorbates:         106 (106 integer, 0 fractional, 0 reaction)
Number of Cations:              0 (0 integer, 0 fractional, 0 reaction

Current total potential energy:           -360451.8816695437 [K]
	Current Host-Host energy:                     0.0000000000 [K]
	Current Host-Adsorbate energy:          -349924.0558532475 [K]
	Current Host-Cation energy:                   0.0000000000 [K]
	Current Adsorbate-Adsorbate energy:      -10527.8258162972 [K]
	Current Cation-Cation energy:                 0.0000000000 [K]
	Current Adsorbate-Cation energy:              0.0000000000 [K]



[Init] Current cycle: 3000 out of 100000
========================================================================================================

Net charge: 0 (F: 0, A: 0, C: 0)
Current Box:  28.30000   0.00000   0.00000 [A]
               0.00000  28.30000   0.00000 [A]
               0.00000   0.00000  27.06900 [A]
Box-lengths:  28.30000  28.30000  27.06900 Box-angles:   90.00000  90.00000  90.00000 [degrees]
Volume: 21679.29141 [A^3]

Loadings per component:
----------------------------------------------------------------------------------------------------------------------------------------------------
Component 0 (argon), current number of integer/fractional/reaction molecules: 110/0/0, density: 336.58289 [kg/m^3]
	absolute adsorption:   2.29167 [mol/uc],         4.7676 [mol/kg],            190.4564 [mg/g]
	                                               106.8610 [cm^3 STP/g],        188.8494 [cm^3 STP/cm^3]
	excess adsorption:     2.29167 [mol/uc],         4.7676 [mol/kg],            190.4564 [mg/g]
	                                               106.8610 [cm^3 STP/g],        188.8494 [cm^3 STP/cm^3]
----------------------------------------------------------------------------------------------------------------------------------------------------
Degrees of freedom: 330 0 330 0
Number of Framework-atoms:   1152
Number of Adsorbates:         110 (110 integer, 0 fractional, 0 reaction)
Number of Cations:              0 (0 integer, 0 fractional, 0 reaction

Current total potential energy:           -369563.9055140131 [K]
	Current Host-Host energy:                     0.0000000000 [K]
	Current Host-Adsorbate energy:          -358724.2803365364 [K]
	Current Host-Cation energy:                   0.0000000000 [K]
	Current Adsorbate-Adsorbate energy:      -10839.6251774744 [K]
	Current Cation-Cation energy:                 0.0000000000 [K]
	Current Adsorbate-Cation energy:              0.0000000000 [K]



[Init] Current cycle: 4000 out of 100000
========================================================================================================

Net charge: 0 (F: 0, A: 0, C: 0)
Current Box:  28.30000   0.00000   0.00000 [A]
               0.00000  28.30000   0.00000 [A]
               0.00000   0.00000  27.06900 [A]
Box-lengths:  28.30000  28.30000  27.06900 Box-angles:   90.00000  90.00000  90.00000 [degrees]
Volume: 21679.29141 [A^3]

Loadings per component:
----------------------------------------------------------------------------------------------------------------------------------------------------
Component 0 (argon), current number of integer/fractional/reaction molecules: 112/0/0, density: 342.70258 [kg/m^3]
	absolute adsorption:   2.33333 [mol/uc],         4.8543 [mol/kg],            193.9192 [mg/g]
	                                               108.8040 [cm^3 STP/g],        192.2830 [cm^3 STP/cm^3]
	excess adsorption:     2.33333 [mol/uc],         4.8543 [mol/kg],            193.9192 [mg/g]
	                                               108.8040 [cm^3 STP/g],        192.2830 [cm^3 STP/cm^3]
----------------------------------------------------------------------------------------------------------------------------------------------------
Degrees of freedom: 336 0 336 0
Number of Framework-atoms:   1152
Number of Adsorbates:         112 (112 integer, 0 fractional, 0 reaction)
Number of Cations:              0 (0 integer, 0 fractional, 0 reaction

Current total potential energy:           -370825.8893719667 [K]
	Current Host-Host energy:                     0.0000000000 [K]
	Current Host-Adsorbate energy:          -360356.4227538596 [K]
	Current Host-Cation energy:                   0.0000000000 [K]
	Current Adsorbate-Adsorbate energy:      -10469.4666181023 [K]
	Current Cation-Cation energy:                 0.0000000000 [K]
	Current Adsorbate-Cation energy:              0.0000000000 [K]



[Init] Current cycle: 5000 out of 100000
========================================================================================================

Net charge: 0 (F: 0, A: 0, C: 0)
Current Box:  28.30000   0.00000   0.00000 [A]
               0.00000  28.30000   0.00000 [A]
               0.00000   0.00000  27.06900 [A]
Box-lengths:  28.30000  28.30000  27.06900 Box-angles:   90.00000  90.00000  90.00000 [degrees]
Volume: 21679.29141 [A^3]

Loadings per component:
----------------------------------------------------------------------------------------------------------------------------------------------------
Component 0 (argon), current number of integer/fractional/reaction molecules: 114/0/0, density: 348.82227 [kg/m^3]
	absolute adsorption:   2.37500 [mol/uc],         4.9410 [mol/kg],            197.3821 [mg/g]
	                                               110.7469 [cm^3 STP/g],        195.7166 [cm^3 STP/cm^3]
	excess adsorption:     2.37500 [mol/uc],         4.9410 [mol/kg],            197.3821 [mg/g]
	                                               110.7469 [cm^3 STP/g],        195.7166 [cm^3 STP/cm^3]
----------------------------------------------------------------------------------------------------------------------------------------------------
Degrees of freedom: 342 0 342 0
Number of Framework-atoms:   1152
Number of Adsorbates:         114 (114 integer, 0 fractional, 0 reaction)
Number of Cations:              0 (0 integer, 0 fractional, 0 reaction

Current total potential energy:           -376144.5246705251 [K]
	Current Host-Host energy:                     0.0000000000 [K]
	Current Host-Adsorbate energy:          -365442.4869239848 [K]
	Current Host-Cation energy:                   0.0000000000 [K]
	Current Adsorbate-Adsorbate energy:      -10702.0377465331 [K]
	Current Cation-Cation energy:                 0.0000000000 [K]
	Current Adsorbate-Cation energy:              0.0000000000 [K]



[Init] Current cycle: 6000 out of 100000
========================================================================================================

Net charge: 0 (F: 0, A: 0, C: 0)
Current Box:  28.30000   0.00000   0.00000 [A]
               0.00000  28.30000   0.00000 [A]
               0.00000   0.00000  27.06900 [A]
Box-lengths:  28.30000  28.30000  27.06900 Box-angles:   90.00000  90.00000  90.00000 [degrees]
Volume: 21679.29141 [A^3]

Loadings per component:
----------------------------------------------------------------------------------------------------------------------------------------------------
Component 0 (argon), current number of integer/fractional/reaction molecules: 114/0/0, density: 348.82227 [kg/m^3]
	absolute adsorption:   2.37500 [mol/uc],         4.9410 [mol/kg],            197.3821 [mg/g]
	                                               110.7469 [cm^3 STP/g],        195.7166 [cm^3 STP/cm^3]
	excess adsorption:     2.37500 [mol/uc],         4.9410 [mol/kg],            197.3821 [mg/g]
	                                               110.7469 [cm^3 STP/g],        195.7166 [cm^3 STP/cm^3]
----------------------------------------------------------------------------------------------------------------------------------------------------
Degrees of freedom: 342 0 342 0
Number of Framework-atoms:   1152
Number of Adsorbates:         114 (114 integer, 0 fractional, 0 reaction)
Number of Cations:              0 (0 integer, 0 fractional, 0 reaction

Current total potential energy:           -376781.3650662383 [K]
	Current Host-Host energy:                     0.0000000000 [K]
	Current Host-Adsorbate energy:          -366205.5658782441 [K]
	Current Host-Cation energy:                   0.0000000000 [K]
	Current Adsorbate-Adsorbate energy:      -10575.7991879912 [K]
	Current Cation-Cation energy:                 0.0000000000 [K]
	Current Adsorbate-Cation energy:              0.0000000000 [K]



[Init] Current cycle: 7000 out of 100000
========================================================================================================

Net charge: 0 (F: 0, A: 0, C: 0)
Current Box:  28.30000   0.00000   0.00000 [A]
               0.00000  28.30000   0.00000 [A]
               0.00000   0.00000  27.06900 [A]
Box-lengths:  28.30000  28.30000  27.06900 Box-angles:   90.00000  90.00000  90.00000 [degrees]
Volume: 21679.29141 [A^3]

Loadings per component:
----------------------------------------------------------------------------------------------------------------------------------------------------
Component 0 (argon), current number of integer/fractional/reaction molecules: 114/0/0, density: 348.82227 [kg/m^3]
	absolute adsorption:   2.37500 [mol/uc],         4.9410 [mol/kg],            197.3821 [mg/g]
	                                               110.7469 [cm^3 STP/g],        195.7166 [cm^3 STP/cm^3]
	excess adsorption:     2.37500 [mol/uc],         4.9410 [mol/kg],            197.3821 [mg/g]
	                                               110.7469 [cm^3 STP/g],        195.7166 [cm^3 STP/cm^3]
----------------------------------------------------------------------------------------------------------------------------------------------------
Degrees of freedom: 342 0 342 0
Number of Framework-atoms:   1152
Number of Adsorbates:         114 (114 integer, 0 fractional, 0 reaction)
Number of Cations:              0 (0 integer, 0 fractional, 0 reaction

Current total potential energy:           -376732.2890273322 [K]
	Current Host-Host energy:                     0.0000000000 [K]
	Current Host-Adsorbate energy:          -366919.5911606051 [K]
	Current Host-Cation energy:                   0.0000000000 [K]
	Current Adsorbate-Adsorbate energy:       -9812.6978667236 [K]
	Current Cation-Cation energy:                 0.0000000000 [K]
	Current Adsorbate-Cation energy:              0.0000000000 [K]



[Init] Current cycle: 8000 out of 100000
========================================================================================================

Net charge: 0 (F: 0, A: 0, C: 0)
Current Box:  28.30000   0.00000   0.00000 [A]
               0.00000  28.30000   0.00000 [A]
               0.00000   0.00000  27.06900 [A]
Box-lengths:  28.30000  28.30000  27.06900 Box-angles:   90.00000  90.00000  90.00000 [degrees]
Volume: 21679.29141 [A^3]

Loadings per component:
----------------------------------------------------------------------------------------------------------------------------------------------------
Component 0 (argon), current number of integer/fractional/reaction molecules: 116/0/0, density: 354.94196 [kg/m^3]
	absolute adsorption:   2.41667 [mol/uc],         5.0277 [mol/kg],            200.8449 [mg/g]
	                                               112.6898 [cm^3 STP/g],        199.1502 [cm^3 STP/cm^3]
	excess adsorption:     2.41667 [mol/uc],         5.0277 [mol/kg],            200.8449 [mg/g]
	                                               112.6898 [cm^3 STP/g],        199.1502 [cm^3 STP/cm^3]
----------------------------------------------------------------------------------------------------------------------------------------------------
Degrees of freedom: 348 0 348 0
Number of Framework-atoms:   1152
Number of Adsorbates:         116 (116 integer, 0 fractional, 0 reaction)
Number of Cations:              0 (0 integer, 0 fractional, 0 reaction

Current total potential energy:           -380982.1369091726 [K]
	Current Host-Host energy:                     0.0000000000 [K]
	Current Host-Adsorbate energy:          -370790.7839733795 [K]
	Current Host-Cation energy:                   0.0000000000 [K]
	Current Adsorbate-Adsorbate energy:      -10191.3529357836 [K]
	Current Cation-Cation energy:                 0.0000000000 [K]
	Current Adsorbate-Cation energy:              0.0000000000 [K]



[Init] Current cycle: 9000 out of 100000
========================================================================================================

Net charge: 0 (F: 0, A: 0, C: 0)
Current Box:  28.30000   0.00000   0.00000 [A]
               0.00000  28.30000   0.00000 [A]
               0.00000   0.00000  27.06900 [A]
Box-lengths:  28.30000  28.30000  27.06900 Box-angles:   90.00000  90.00000  90.00000 [degrees]
Volume: 21679.29141 [A^3]

Loadings per component:
----------------------------------------------------------------------------------------------------------------------------------------------------
Component 0 (argon), current number of integer/fractional/reaction molecules: 117/0/0, density: 358.00180 [kg/m^3]
	absolute adsorption:   2.43750 [mol/uc],         5.0710 [mol/kg],            202.5763 [mg/g]
	                                               113.6613 [cm^3 STP/g],        200.8670 [cm^3 STP/cm^3]
	excess adsorption:     2.43750 [mol/uc],         5.0710 [mol/kg],            202.5763 [mg/g]
	                                               113.6613 [cm^3 STP/g],        200.8670 [cm^3 STP/cm^3]
----------------------------------------------------------------------------------------------------------------------------------------------------
Degrees of freedom: 351 0 351 0
Number of Framework-atoms:   1152
Number of Adsorbates:         117 (117 integer, 0 fractional, 0 reaction)
Number of Cations:              0 (0 integer, 0 fractional, 0 reaction

Current total potential energy:           -380740.9027460961 [K]
	Current Host-Host energy:                     0.0000000000 [K]
	Current Host-Adsorbate energy:          -370165.9916291369 [K]
	Current Host-Cation energy:                   0.0000000000 [K]
	Current Adsorbate-Adsorbate energy:      -10574.9111169501 [K]
	Current Cation-Cation energy:                 0.0000000000 [K]
	Current Adsorbate-Cation energy:              0.0000000000 [K]



[Init] Current cycle: 10000 out of 100000
========================================================================================================

Net charge: 0 (F: 0, A: 0, C: 0)
Current Box:  28.30000   0.00000   0.00000 [A]
               0.00000  28.30000   0.00000 [A]
               0.00000   0.00000  27.06900 [A]
Box-lengths:  28.30000  28.30000  27.06900 Box-angles:   90.00000  90.00000  90.00000 [degrees]
Volume: 21679.29141 [A^3]

Loadings per component:
----------------------------------------------------------------------------------------------------------------------------------------------------
Component 0 (argon), current number of integer/fractional/reaction molecules: 120/0/0, density: 367.18134 [kg/m^3]
	absolute adsorption:   2.50000 [mol/uc],         5.2010 [mol/kg],            207.7706 [mg/g]
	                                               116.5757 [cm^3 STP/g],        206.0175 [cm^3 STP/cm^3]
	excess adsorption:     2.50000 [mol/uc],         5.2010 [mol/kg],            207.7706 [mg/g]
	                                               116.5757 [cm^3 STP/g],        206.0175 [cm^3 STP/cm^3]
----------------------------------------------------------------------------------------------------------------------------------------------------
Degrees of freedom: 360 0 360 0
Number of Framework-atoms:   1152
Number of Adsorbates:         120 (120 integer, 0 fractional, 0 reaction)
Number of Cations:              0 (0 integer, 0 fractional, 0 reaction

Current total potential energy:           -387405.2957335481 [K]
	Current Host-Host energy:                     0.0000000000 [K]
	Current Host-Adsorbate energy:          -375791.9935331938 [K]
	Current Host-Cation energy:                   0.0000000000 [K]
	Current Adsorbate-Adsorbate energy:      -11613.3022003485 [K]
	Current Cation-Cation energy:                 0.0000000000 [K]
	Current Adsorbate-Cation energy:              0.0000000000 [K]



[Init] Current cycle: 11000 out of 100000
========================================================================================================

Net charge: 0 (F: 0, A: 0, C: 0)
Current Box:  28.30000   0.00000   0.00000 [A]
               0.00000  28.30000   0.00000 [A]
               0.00000   0.00000  27.06900 [A]
Box-lengths:  28.30000  28.30000  27.06900 Box-angles:   90.00000  90.00000  90.00000 [degrees]
Volume: 21679.29141 [A^3]

Loadings per component:
----------------------------------------------------------------------------------------------------------------------------------------------------
Component 0 (argon), current number of integer/fractional/reaction molecules: 121/0/0, density: 370.24118 [kg/m^3]
	absolute adsorption:   2.52083 [mol/uc],         5.2444 [mol/kg],            209.5020 [mg/g]
	                                               117.5471 [cm^3 STP/g],        207.7343 [cm^3 STP/cm^3]
	excess adsorption:     2.52083 [mol/uc],         5.2444 [mol/kg],            209.5020 [mg/g]
	                                               117.5471 [cm^3 STP/g],        207.7343 [cm^3 STP/cm^3]
----------------------------------------------------------------------------------------------------------------------------------------------------
Degrees of freedom: 363 0 363 0
Number of Framework-atoms:   1152
Number of Adsorbates:         121 (121 integer, 0 fractional, 0 reaction)
Number of Cations:              0 (0 integer, 0 fractional, 0 reaction

Current total potential energy:           -388650.0180412100 [K]
	Current Host-Host energy:                     0.0000000000 [K]
	Current Host-Adsorbate energy:          -378795.4145664630 [K]
	Current Host-Cation energy:                   0.0000000000 [K]
	Current Adsorbate-Adsorbate energy:       -9854.6034747396 [K]
	Current Cation-Cation energy:                 0.0000000000 [K]
	Current Adsorbate-Cation energy:              0.0000000000 [K]



[Init] Current cycle: 12000 out of 100000
========================================================================================================

Net charge: 0 (F: 0, A: 0, C: 0)
Current Box:  28.30000   0.00000   0.00000 [A]
               0.00000  28.30000   0.00000 [A]
               0.00000   0.00000  27.06900 [A]
Box-lengths:  28.30000  28.30000  27.06900 Box-angles:   90.00000  90.00000  90.00000 [degrees]
Volume: 21679.29141 [A^3]

Loadings per component:
----------------------------------------------------------------------------------------------------------------------------------------------------
Component 0 (argon), current number of integer/fractional/reaction molecules: 121/0/0, density: 370.24118 [kg/m^3]
	absolute adsorption:   2.52083 [mol/uc],         5.2444 [mol/kg],            209.5020 [mg/g]
	                                               117.5471 [cm^3 STP/g],        207.7343 [cm^3 STP/cm^3]
	excess adsorption:     2.52083 [mol/uc],         5.2444 [mol/kg],            209.5020 [mg/g]
	                                               117.5471 [cm^3 STP/g],        207.7343 [cm^3 STP/cm^3]
----------------------------------------------------------------------------------------------------------------------------------------------------
Degrees of freedom: 363 0 363 0
Number of Framework-atoms:   1152
Number of Adsorbates:         121 (121 integer, 0 fractional, 0 reaction)
Number of Cations:              0 (0 integer, 0 fractional, 0 reaction

Current total potential energy:           -390148.0072957457 [K]
	Current Host-Host energy:                     0.0000000000 [K]
	Current Host-Adsorbate energy:          -379191.3869104064 [K]
	Current Host-Cation energy:                   0.0000000000 [K]
	Current Adsorbate-Adsorbate energy:      -10956.6203853275 [K]
	Current Cation-Cation energy:                 0.0000000000 [K]
	Current Adsorbate-Cation energy:              0.0000000000 [K]



[Init] Current cycle: 13000 out of 100000
========================================================================================================

Net charge: 0 (F: 0, A: 0, C: 0)
Current Box:  28.30000   0.00000   0.00000 [A]
               0.00000  28.30000   0.00000 [A]
               0.00000   0.00000  27.06900 [A]
Box-lengths:  28.30000  28.30000  27.06900 Box-angles:   90.00000  90.00000  90.00000 [degrees]
Volume: 21679.29141 [A^3]

Loadings per component:
----------------------------------------------------------------------------------------------------------------------------------------------------
Component 0 (argon), current number of integer/fractional/reaction molecules: 122/0/0, density: 373.30103 [kg/m^3]
	absolute adsorption:   2.54167 [mol/uc],         5.2877 [mol/kg],            211.2334 [mg/g]
	                                               118.5186 [cm^3 STP/g],        209.4511 [cm^3 STP/cm^3]
	excess adsorption:     2.54167 [mol/uc],         5.2877 [mol/kg],            211.2334 [mg/g]
	                                               118.5186 [cm^3 STP/g],        209.4511 [cm^3 STP/cm^3]
----------------------------------------------------------------------------------------------------------------------------------------------------
Degrees of freedom: 366 0 366 0
Number of Framework-atoms:   1152
Number of Adsorbates:         122 (122 integer, 0 fractional, 0 reaction)
Number of Cations:              0 (0 integer, 0 fractional, 0 reaction

Current total potential energy:           -393114.1775379090 [K]
	Current Host-Host energy:                     0.0000000000 [K]
	Current Host-Adsorbate energy:          -382868.6622784523 [K]
	Current Host-Cation energy:                   0.0000000000 [K]
	Current Adsorbate-Adsorbate energy:      -10245.5152594457 [K]
	Current Cation-Cation energy:                 0.0000000000 [K]
	Current Adsorbate-Cation energy:              0.0000000000 [K]



[Init] Current cycle: 14000 out of 100000
========================================================================================================

Net charge: 0 (F: 0, A: 0, C: 0)
Current Box:  28.30000   0.00000   0.00000 [A]
               0.00000  28.30000   0.00000 [A]
               0.00000   0.00000  27.06900 [A]
Box-lengths:  28.30000  28.30000  27.06900 Box-angles:   90.00000  90.00000  90.00000 [degrees]
Volume: 21679.29141 [A^3]

Loadings per component:
----------------------------------------------------------------------------------------------------------------------------------------------------
Component 0 (argon), current number of integer/fractional/reaction molecules: 127/0/0, density: 388.60025 [kg/m^3]
	absolute adsorption:   2.64583 [mol/uc],         5.5044 [mol/kg],            219.8905 [mg/g]
	                                               123.3759 [cm^3 STP/g],        218.0352 [cm^3 STP/cm^3]
	excess adsorption:     2.64583 [mol/uc],         5.5044 [mol/kg],            219.8905 [mg/g]
	                                               123.3759 [cm^3 STP/g],        218.0352 [cm^3 STP/cm^3]
----------------------------------------------------------------------------------------------------------------------------------------------------
Degrees of freedom: 381 0 381 0
Number of Framework-atoms:   1152
Number of Adsorbates:         127 (127 integer, 0 fractional, 0 reaction)
Number of Cations:              0 (0 integer, 0 fractional, 0 reaction

Current total potential energy:           -400573.7373798771 [K]
	Current Host-Host energy:                     0.0000000000 [K]
	Current Host-Adsorbate energy:          -389018.8968449904 [K]
	Current Host-Cation energy:                   0.0000000000 [K]
	Current Adsorbate-Adsorbate energy:      -11554.8405348780 [K]
	Current Cation-Cation energy:                 0.0000000000 [K]
	Current Adsorbate-Cation energy:              0.0000000000 [K]



[Init] Current cycle: 15000 out of 100000
========================================================================================================

Net charge: 0 (F: 0, A: 0, C: 0)
Current Box:  28.30000   0.00000   0.00000 [A]
               0.00000  28.30000   0.00000 [A]
               0.00000   0.00000  27.06900 [A]
Box-lengths:  28.30000  28.30000  27.06900 Box-angles:   90.00000  90.00000  90.00000 [degrees]
Volume: 21679.29141 [A^3]

Loadings per component:
----------------------------------------------------------------------------------------------------------------------------------------------------
Component 0 (argon), current number of integer/fractional/reaction molecules: 128/0/0, density: 391.66009 [kg/m^3]
	absolute adsorption:   2.66667 [mol/uc],         5.5478 [mol/kg],            221.6220 [mg/g]
	                                               124.3474 [cm^3 STP/g],        219.7520 [cm^3 STP/cm^3]
	excess adsorption:     2.66667 [mol/uc],         5.5478 [mol/kg],            221.6220 [mg/g]
	                                               124.3474 [cm^3 STP/g],        219.7520 [cm^3 STP/cm^3]
----------------------------------------------------------------------------------------------------------------------------------------------------
Degrees of freedom: 384 0 384 0
Number of Framework-atoms:   1152
Number of Adsorbates:         128 (128 integer, 0 fractional, 0 reaction)
Number of Cations:              0 (0 integer, 0 fractional, 0 reaction

Current total potential energy:           -403224.1237289786 [K]
	Current Host-Host energy:                     0.0000000000 [K]
	Current Host-Adsorbate energy:          -390189.2939428861 [K]
	Current Host-Cation energy:                   0.0000000000 [K]
	Current Adsorbate-Adsorbate energy:      -13034.8297860815 [K]
	Current Cation-Cation energy:                 0.0000000000 [K]
	Current Adsorbate-Cation energy:              0.0000000000 [K]



[Init] Current cycle: 16000 out of 100000
========================================================================================================

Net charge: 0 (F: 0, A: 0, C: 0)
Current Box:  28.30000   0.00000   0.00000 [A]
               0.00000  28.30000   0.00000 [A]
               0.00000   0.00000  27.06900 [A]
Box-lengths:  28.30000  28.30000  27.06900 Box-angles:   90.00000  90.00000  90.00000 [degrees]
Volume: 21679.29141 [A^3]

Loadings per component:
----------------------------------------------------------------------------------------------------------------------------------------------------
Component 0 (argon), current number of integer/fractional/reaction molecules: 129/0/0, density: 394.71994 [kg/m^3]
	absolute adsorption:   2.68750 [mol/uc],         5.5911 [mol/kg],            223.3534 [mg/g]
	                                               125.3188 [cm^3 STP/g],        221.4688 [cm^3 STP/cm^3]
	excess adsorption:     2.68750 [mol/uc],         5.5911 [mol/kg],            223.3534 [mg/g]
	                                               125.3188 [cm^3 STP/g],        221.4688 [cm^3 STP/cm^3]
----------------------------------------------------------------------------------------------------------------------------------------------------
Degrees of freedom: 387 0 387 0
Number of Framework-atoms:   1152
Number of Adsorbates:         129 (129 integer, 0 fractional, 0 reaction)
Number of Cations:              0 (0 integer, 0 fractional, 0 reaction

Current total potential energy:           -405221.2017127663 [K]
	Current Host-Host energy:                     0.0000000000 [K]
	Current Host-Adsorbate energy:          -392793.1001865549 [K]
	Current Host-Cation energy:                   0.0000000000 [K]
	Current Adsorbate-Adsorbate energy:      -12428.1015262041 [K]
	Current Cation-Cation energy:                 0.0000000000 [K]
	Current Adsorbate-Cation energy:              0.0000000000 [K]



[Init] Current cycle: 17000 out of 100000
========================================================================================================

Net charge: 0 (F: 0, A: 0, C: 0)
Current Box:  28.30000   0.00000   0.00000 [A]
               0.00000  28.30000   0.00000 [A]
               0.00000   0.00000  27.06900 [A]
Box-lengths:  28.30000  28.30000  27.06900 Box-angles:   90.00000  90.00000  90.00000 [degrees]
Volume: 21679.29141 [A^3]

Loadings per component:
----------------------------------------------------------------------------------------------------------------------------------------------------
Component 0 (argon), current number of integer/fractional/reaction molecules: 129/0/0, density: 394.71994 [kg/m^3]
	absolute adsorption:   2.68750 [mol/uc],         5.5911 [mol/kg],            223.3534 [mg/g]
	                                               125.3188 [cm^3 STP/g],        221.4688 [cm^3 STP/cm^3]
	excess adsorption:     2.68750 [mol/uc],         5.5911 [mol/kg],            223.3534 [mg/g]
	                                               125.3188 [cm^3 STP/g],        221.4688 [cm^3 STP/cm^3]
----------------------------------------------------------------------------------------------------------------------------------------------------
Degrees of freedom: 387 0 387 0
Number of Framework-atoms:   1152
Number of Adsorbates:         129 (129 integer, 0 fractional, 0 reaction)
Number of Cations:              0 (0 integer, 0 fractional, 0 reaction

Current total potential energy:           -406428.2324318626 [K]
	Current Host-Host energy:                     0.0000000000 [K]
	Current Host-Adsorbate energy:          -395023.9026611898 [K]
	Current Host-Cation energy:                   0.0000000000 [K]
	Current Adsorbate-Adsorbate energy:      -11404.3297706595 [K]
	Current Cation-Cation energy:                 0.0000000000 [K]
	Current Adsorbate-Cation energy:              0.0000000000 [K]



[Init] Current cycle: 18000 out of 100000
========================================================================================================

Net charge: 0 (F: 0, A: 0, C: 0)
Current Box:  28.30000   0.00000   0.00000 [A]
               0.00000  28.30000   0.00000 [A]
               0.00000   0.00000  27.06900 [A]
Box-lengths:  28.30000  28.30000  27.06900 Box-angles:   90.00000  90.00000  90.00000 [degrees]
Volume: 21679.29141 [A^3]

Loadings per component:
----------------------------------------------------------------------------------------------------------------------------------------------------
Component 0 (argon), current number of integer/fractional/reaction molecules: 130/0/0, density: 397.77978 [kg/m^3]
	absolute adsorption:   2.70833 [mol/uc],         5.6344 [mol/kg],            225.0848 [mg/g]
	                                               126.2903 [cm^3 STP/g],        223.1856 [cm^3 STP/cm^3]
	excess adsorption:     2.70833 [mol/uc],         5.6344 [mol/kg],            225.0848 [mg/g]
	                                               126.2903 [cm^3 STP/g],        223.1856 [cm^3 STP/cm^3]
----------------------------------------------------------------------------------------------------------------------------------------------------
Degrees of freedom: 390 0 390 0
Number of Framework-atoms:   1152
Number of Adsorbates:         130 (130 integer, 0 fractional, 0 reaction)
Number of Cations:              0 (0 integer, 0 fractional, 0 reaction

Current total potential energy:           -407009.7161430130 [K]
	Current Host-Host energy:                     0.0000000000 [K]
	Current Host-Adsorbate energy:          -395724.2413188524 [K]
	Current Host-Cation energy:                   0.0000000000 [K]
	Current Adsorbate-Adsorbate energy:      -11285.4748241485 [K]
	Current Cation-Cation energy:                 0.0000000000 [K]
	Current Adsorbate-Cation energy:              0.0000000000 [K]



[Init] Current cycle: 19000 out of 100000
========================================================================================================

Net charge: 0 (F: 0, A: 0, C: 0)
Current Box:  28.30000   0.00000   0.00000 [A]
               0.00000  28.30000   0.00000 [A]
               0.00000   0.00000  27.06900 [A]
Box-lengths:  28.30000  28.30000  27.06900 Box-angles:   90.00000  90.00000  90.00000 [degrees]
Volume: 21679.29141 [A^3]

Loadings per component:
----------------------------------------------------------------------------------------------------------------------------------------------------
Component 0 (argon), current number of integer/fractional/reaction molecules: 131/0/0, density: 400.83963 [kg/m^3]
	absolute adsorption:   2.72917 [mol/uc],         5.6778 [mol/kg],            226.8162 [mg/g]
	                                               127.2618 [cm^3 STP/g],        224.9024 [cm^3 STP/cm^3]
	excess adsorption:     2.72917 [mol/uc],         5.6778 [mol/kg],            226.8162 [mg/g]
	                                               127.2618 [cm^3 STP/g],        224.9024 [cm^3 STP/cm^3]
----------------------------------------------------------------------------------------------------------------------------------------------------
Degrees of freedom: 393 0 393 0
Number of Framework-atoms:   1152
Number of Adsorbates:         131 (131 integer, 0 fractional, 0 reaction)
Number of Cations:              0 (0 integer, 0 fractional, 0 reaction

Current total potential energy:           -408442.3990426385 [K]
	Current Host-Host energy:                     0.0000000000 [K]
	Current Host-Adsorbate energy:          -397080.0551047744 [K]
	Current Host-Cation energy:                   0.0000000000 [K]
	Current Adsorbate-Adsorbate energy:      -11362.3439378500 [K]
	Current Cation-Cation energy:                 0.0000000000 [K]
	Current Adsorbate-Cation energy:              0.0000000000 [K]



[Init] Current cycle: 20000 out of 100000
========================================================================================================

Net charge: 0 (F: 0, A: 0, C: 0)
Current Box:  28.30000   0.00000   0.00000 [A]
               0.00000  28.30000   0.00000 [A]
               0.00000   0.00000  27.06900 [A]
Box-lengths:  28.30000  28.30000  27.06900 Box-angles:   90.00000  90.00000  90.00000 [degrees]
Volume: 21679.29141 [A^3]

Loadings per component:
----------------------------------------------------------------------------------------------------------------------------------------------------
Component 0 (argon), current number of integer/fractional/reaction molecules: 131/0/0, density: 400.83963 [kg/m^3]
	absolute adsorption:   2.72917 [mol/uc],         5.6778 [mol/kg],            226.8162 [mg/g]
	                                               127.2618 [cm^3 STP/g],        224.9024 [cm^3 STP/cm^3]
	excess adsorption:     2.72917 [mol/uc],         5.6778 [mol/kg],            226.8162 [mg/g]
	                                               127.2618 [cm^3 STP/g],        224.9024 [cm^3 STP/cm^3]
----------------------------------------------------------------------------------------------------------------------------------------------------
Degrees of freedom: 393 0 393 0
Number of Framework-atoms:   1152
Number of Adsorbates:         131 (131 integer, 0 fractional, 0 reaction)
Number of Cations:              0 (0 integer, 0 fractional, 0 reaction

Current total potential energy:           -409531.0323680584 [K]
	Current Host-Host energy:                     0.0000000000 [K]
	Current Host-Adsorbate energy:          -396648.1202633719 [K]
	Current Host-Cation energy:                   0.0000000000 [K]
	Current Adsorbate-Adsorbate energy:      -12882.9121046780 [K]
	Current Cation-Cation energy:                 0.0000000000 [K]
	Current Adsorbate-Cation energy:              0.0000000000 [K]



[Init] Current cycle: 21000 out of 100000
========================================================================================================

Net charge: 0 (F: 0, A: 0, C: 0)
Current Box:  28.30000   0.00000   0.00000 [A]
               0.00000  28.30000   0.00000 [A]
               0.00000   0.00000  27.06900 [A]
Box-lengths:  28.30000  28.30000  27.06900 Box-angles:   90.00000  90.00000  90.00000 [degrees]
Volume: 21679.29141 [A^3]

Loadings per component:
----------------------------------------------------------------------------------------------------------------------------------------------------
Component 0 (argon), current number of integer/fractional/reaction molecules: 131/0/0, density: 400.83963 [kg/m^3]
	absolute adsorption:   2.72917 [mol/uc],         5.6778 [mol/kg],            226.8162 [mg/g]
	                                               127.2618 [cm^3 STP/g],        224.9024 [cm^3 STP/cm^3]
	excess adsorption:     2.72917 [mol/uc],         5.6778 [mol/kg],            226.8162 [mg/g]
	                                               127.2618 [cm^3 STP/g],        224.9024 [cm^3 STP/cm^3]
----------------------------------------------------------------------------------------------------------------------------------------------------
Degrees of freedom: 393 0 393 0
Number of Framework-atoms:   1152
Number of Adsorbates:         131 (131 integer, 0 fractional, 0 reaction)
Number of Cations:              0 (0 integer, 0 fractional, 0 reaction

Current total potential energy:           -407543.8027838142 [K]
	Current Host-Host energy:                     0.0000000000 [K]
	Current Host-Adsorbate energy:          -395834.2739863259 [K]
	Current Host-Cation energy:                   0.0000000000 [K]
	Current Adsorbate-Adsorbate energy:      -11709.5287974789 [K]
	Current Cation-Cation energy:                 0.0000000000 [K]
	Current Adsorbate-Cation energy:              0.0000000000 [K]



[Init] Current cycle: 22000 out of 100000
========================================================================================================

Net charge: 0 (F: 0, A: 0, C: 0)
Current Box:  28.30000   0.00000   0.00000 [A]
               0.00000  28.30000   0.00000 [A]
               0.00000   0.00000  27.06900 [A]
Box-lengths:  28.30000  28.30000  27.06900 Box-angles:   90.00000  90.00000  90.00000 [degrees]
Volume: 21679.29141 [A^3]

Loadings per component:
----------------------------------------------------------------------------------------------------------------------------------------------------
Component 0 (argon), current number of integer/fractional/reaction molecules: 131/0/0, density: 400.83963 [kg/m^3]
	absolute adsorption:   2.72917 [mol/uc],         5.6778 [mol/kg],            226.8162 [mg/g]
	                                               127.2618 [cm^3 STP/g],        224.9024 [cm^3 STP/cm^3]
	excess adsorption:     2.72917 [mol/uc],         5.6778 [mol/kg],            226.8162 [mg/g]
	                                               127.2618 [cm^3 STP/g],        224.9024 [cm^3 STP/cm^3]
----------------------------------------------------------------------------------------------------------------------------------------------------
Degrees of freedom: 393 0 393 0
Number of Framework-atoms:   1152
Number of Adsorbates:         131 (131 integer, 0 fractional, 0 reaction)
Number of Cations:              0 (0 integer, 0 fractional, 0 reaction

Current total potential energy:           -409068.5233551727 [K]
	Current Host-Host energy:                     0.0000000000 [K]
	Current Host-Adsorbate energy:          -396631.6449900843 [K]
	Current Host-Cation energy:                   0.0000000000 [K]
	Current Adsorbate-Adsorbate energy:      -12436.8783650770 [K]
	Current Cation-Cation energy:                 0.0000000000 [K]
	Current Adsorbate-Cation energy:              0.0000000000 [K]



[Init] Current cycle: 23000 out of 100000
[...]
	Block[ 1]            0.00000 [K]
	Block[ 2]            0.00000 [K]
	Block[ 3]            0.00000 [K]
	Block[ 4]            0.00000 [K]
	------------------------------------------------------------------------------
	Average              0.00000 [K] +/-            0.00000 [K]

Average Cation Bend angle inversion energy:
===========================================
	Block[ 0]            0.00000 [K]
	Block[ 1]            0.00000 [K]
	Block[ 2]            0.00000 [K]
	Block[ 3]            0.00000 [K]
	Block[ 4]            0.00000 [K]
	------------------------------------------------------------------------------
	Average              0.00000 [K] +/-            0.00000 [K]

Average Cation Torsion energy:
==============================
	Block[ 0]            0.00000 [K]
	Block[ 1]            0.00000 [K]
	Block[ 2]            0.00000 [K]
	Block[ 3]            0.00000 [K]
	Block[ 4]            0.00000 [K]
	------------------------------------------------------------------------------
	Average              0.00000 [K] +/-            0.00000 [K]

Average Cation Improper Torsion energy:
=======================================
	Block[ 0]            0.00000 [K]
	Block[ 1]            0.00000 [K]
	Block[ 2]            0.00000 [K]
	Block[ 3]            0.00000 [K]
	Block[ 4]            0.00000 [K]
	------------------------------------------------------------------------------
	Average              0.00000 [K] +/-            0.00000 [K]

Average Cation Bond-Bond cross term energy:
=================================================
	Block[ 0]            0.00000 [K]
	Block[ 1]            0.00000 [K]
	Block[ 2]            0.00000 [K]
	Block[ 3]            0.00000 [K]
	Block[ 4]            0.00000 [K]
	------------------------------------------------------------------------------
	Average              0.00000 [K] +/-            0.00000 [K]

Average Cation Bend-Bend cross term energy:
===========================================
	Block[ 0]            0.00000 [K]
	Block[ 1]            0.00000 [K]
	Block[ 2]            0.00000 [K]
	Block[ 3]            0.00000 [K]
	Block[ 4]            0.00000 [K]
	------------------------------------------------------------------------------
	Average              0.00000 [K] +/-            0.00000 [K]

Average Cation Bond-Bend cross term energy:
==============================================
	Block[ 0]            0.00000 [K]
	Block[ 1]            0.00000 [K]
	Block[ 2]            0.00000 [K]
	Block[ 3]            0.00000 [K]
	Block[ 4]            0.00000 [K]
	------------------------------------------------------------------------------
	Average              0.00000 [K] +/-            0.00000 [K]

Average Cation Bond-Torsion cross term energy:
==============================================
	Block[ 0]            0.00000 [K]
	Block[ 1]            0.00000 [K]
	Block[ 2]            0.00000 [K]
	Block[ 3]            0.00000 [K]
	Block[ 4]            0.00000 [K]
	------------------------------------------------------------------------------
	Average              0.00000 [K] +/-            0.00000 [K]

Average Cation Bend-Torsion cross term energy:
==============================================
	Block[ 0]            0.00000 [K]
	Block[ 1]            0.00000 [K]
	Block[ 2]            0.00000 [K]
	Block[ 3]            0.00000 [K]
	Block[ 4]            0.00000 [K]
	------------------------------------------------------------------------------
	Average              0.00000 [K] +/-            0.00000 [K]

Average Cation Intra Van der Waals energy:
==========================================
	Block[ 0]            0.00000 [K]
	Block[ 1]            0.00000 [K]
	Block[ 2]            0.00000 [K]
	Block[ 3]            0.00000 [K]
	Block[ 4]            0.00000 [K]
	------------------------------------------------------------------------------
	Average              0.00000 [K] +/-            0.00000 [K]

Average Cation Intra charge-charge Coulomb energy:
====================================
	Block[ 0]            0.00000 [K]
	Block[ 1]            0.00000 [K]
	Block[ 2]            0.00000 [K]
	Block[ 3]            0.00000 [K]
	Block[ 4]            0.00000 [K]
	------------------------------------------------------------------------------
	Average              0.00000 [K] +/-            0.00000 [K]

Average Cation Intra charge-bonddipole Coulomb energy:
====================================
	Block[ 0]            0.00000 [K]
	Block[ 1]            0.00000 [K]
	Block[ 2]            0.00000 [K]
	Block[ 3]            0.00000 [K]
	Block[ 4]            0.00000 [K]
	------------------------------------------------------------------------------
	Average              0.00000 [K] +/-            0.00000 [K]

Average Cation Intra bonddipole-bonddipole Coulomb energy:
====================================
	Block[ 0]            0.00000 [K]
	Block[ 1]            0.00000 [K]
	Block[ 2]            0.00000 [K]
	Block[ 3]            0.00000 [K]
	Block[ 4]            0.00000 [K]
	------------------------------------------------------------------------------
	Average              0.00000 [K] +/-            0.00000 [K]

Average Host-Host energy:
=========================
	Block[ 0] 0.00000            Van der Waals: 0.00000            Coulomb: 0.00000            [K]
	Block[ 1] 0.00000            Van der Waals: 0.00000            Coulomb: 0.00000            [K]
	Block[ 2] 0.00000            Van der Waals: 0.00000            Coulomb: 0.00000            [K]
	Block[ 3] 0.00000            Van der Waals: 0.00000            Coulomb: 0.00000            [K]
	Block[ 4] 0.00000            Van der Waals: 0.00000            Coulomb: 0.00000            [K]
	------------------------------------------------------------------------------
	Average   0.00000            Van der Waals: 0.000000           Coulomb: 0.00000            [K]
	      +/- 0.00000                       +/- 0.000000                +/- 0.00000            [K]

Average Adsorbate-Adsorbate energy:
===================================
	Block[ 0] -18491.25543       Van der Waals: -18491.25543       Coulomb: 0.00000            [K]
	Block[ 1] -18927.47531       Van der Waals: -18927.47531       Coulomb: 0.00000            [K]
	Block[ 2] -19553.37543       Van der Waals: -19553.37543       Coulomb: 0.00000            [K]
	Block[ 3] -19802.70738       Van der Waals: -19802.70738       Coulomb: 0.00000            [K]
	Block[ 4] -20040.91955       Van der Waals: -20040.91955       Coulomb: 0.00000            [K]
	------------------------------------------------------------------------------
	Average   -19363.14662       Van der Waals: -19363.146618      Coulomb: 0.00000            [K]
	      +/- 1144.99975                    +/- 1144.999752             +/- 0.00000            [K]

Average Cation-Cation energy:
=============================
	Block[ 0] 0.00000            Van der Waals: 0.00000            Coulomb: 0.00000            [K]
	Block[ 1] 0.00000            Van der Waals: 0.00000            Coulomb: 0.00000            [K]
	Block[ 2] 0.00000            Van der Waals: 0.00000            Coulomb: 0.00000            [K]
	Block[ 3] 0.00000            Van der Waals: 0.00000            Coulomb: 0.00000            [K]
	Block[ 4] 0.00000            Van der Waals: 0.00000            Coulomb: 0.00000            [K]
	------------------------------------------------------------------------------
	Average   0.00000            Van der Waals: 0.000000           Coulomb: 0.00000            [K]
	      +/- 0.00000                       +/- 0.000000                +/- 0.00000            [K]

Average Host-Adsorbate energy:
==============================
	Block[ 0] -480899.55976      Van der Waals: -480899.55976      Coulomb: 0.00000            [K]
	Block[ 1] -487867.71031      Van der Waals: -487867.71031      Coulomb: 0.00000            [K]
	Block[ 2] -492687.63389      Van der Waals: -492687.63389      Coulomb: 0.00000            [K]
	Block[ 3] -494276.86504      Van der Waals: -494276.86504      Coulomb: 0.00000            [K]
	Block[ 4] -496988.69199      Van der Waals: -496988.69199      Coulomb: 0.00000            [K]
	------------------------------------------------------------------------------
	Average   -490544.09220      Van der Waals: -490544.092196     Coulomb: 0.00000            [K]
	      +/- 11322.23499                   +/- 11322.234992            +/- 0.00000            [K]

Average Host-Cation energy:
===========================
	Block[ 0] 0.00000            Van der Waals: 0.00000            Coulomb: 0.00000            [K]
	Block[ 1] 0.00000            Van der Waals: 0.00000            Coulomb: 0.00000            [K]
	Block[ 2] 0.00000            Van der Waals: 0.00000            Coulomb: 0.00000            [K]
	Block[ 3] 0.00000            Van der Waals: 0.00000            Coulomb: 0.00000            [K]
	Block[ 4] 0.00000            Van der Waals: 0.00000            Coulomb: 0.00000            [K]
	------------------------------------------------------------------------------
	Average   0.00000            Van der Waals: 0.000000           Coulomb: 0.00000            [K]
	      +/- 0.00000                       +/- 0.000000                +/- 0.00000            [K]

Average Adsorbate-Cation energy:
================================
	Block[ 0] 0.00000            Van der Waals: 0.00000            Coulomb: 0.00000            [K]
	Block[ 1] 0.00000            Van der Waals: 0.00000            Coulomb: 0.00000            [K]
	Block[ 2] 0.00000            Van der Waals: 0.00000            Coulomb: 0.00000            [K]
	Block[ 3] 0.00000            Van der Waals: 0.00000            Coulomb: 0.00000            [K]
	Block[ 4] 0.00000            Van der Waals: 0.00000            Coulomb: 0.00000            [K]
	------------------------------------------------------------------------------
	Average   0.00000            Van der Waals: 0.000000           Coulomb: 0.00000            [K]
	      +/- 0.00000                       +/- 0.000000                +/- 0.00000            [K]

Host polarization energy:
=======================
	Block[ 0]            0.00000 [K]
	Block[ 1]            0.00000 [K]
	Block[ 2]            0.00000 [K]
	Block[ 3]            0.00000 [K]
	Block[ 4]            0.00000 [K]
	------------------------------------------------------------------------------
	Average              0.00000 [K] +/-            0.00000 [K]

Adsorbate polarization energy:
=======================
	Block[ 0]            0.00000 [K]
	Block[ 1]            0.00000 [K]
	Block[ 2]            0.00000 [K]
	Block[ 3]            0.00000 [K]
	Block[ 4]            0.00000 [K]
	------------------------------------------------------------------------------
	Average              0.00000 [K] +/-            0.00000 [K]

Cation polarization energy:
=======================
	Block[ 0]            0.00000 [K]
	Block[ 1]            0.00000 [K]
	Block[ 2]            0.00000 [K]
	Block[ 3]            0.00000 [K]
	Block[ 4]            0.00000 [K]
	------------------------------------------------------------------------------
	Average              0.00000 [K] +/-            0.00000 [K]

Host back-polarization energy:
=======================
	Block[ 0]            0.00000 [K]
	Block[ 1]            0.00000 [K]
	Block[ 2]            0.00000 [K]
	Block[ 3]            0.00000 [K]
	Block[ 4]            0.00000 [K]
	------------------------------------------------------------------------------
	Average              0.00000 [K] +/-            0.00000 [K]

Adsorbate back-polarization energy:
=======================
	Block[ 0]            0.00000 [K]
	Block[ 1]            0.00000 [K]
	Block[ 2]            0.00000 [K]
	Block[ 3]            0.00000 [K]
	Block[ 4]            0.00000 [K]
	------------------------------------------------------------------------------
	Average              0.00000 [K] +/-            0.00000 [K]

Cation back-polarization energy:
=======================
	Block[ 0]            0.00000 [K]
	Block[ 1]            0.00000 [K]
	Block[ 2]            0.00000 [K]
	Block[ 3]            0.00000 [K]
	Block[ 4]            0.00000 [K]
	------------------------------------------------------------------------------
	Average              0.00000 [K] +/-            0.00000 [K]

Tail-correction energy:
=======================
	Block[ 0]            0.00000 [K]
	Block[ 1]            0.00000 [K]
	Block[ 2]            0.00000 [K]
	Block[ 3]            0.00000 [K]
	Block[ 4]            0.00000 [K]
	------------------------------------------------------------------------------
	Average              0.00000 [K] +/-            0.00000 [K]

Distance-constraints energy:
=======================
	Block[ 0]            0.00000 [K]
	Block[ 1]            0.00000 [K]
	Block[ 2]            0.00000 [K]
	Block[ 3]            0.00000 [K]
	Block[ 4]            0.00000 [K]
	------------------------------------------------------------------------------
	Average              0.00000 [K] +/-            0.00000 [K]

Angle-constraints energy:
=======================
	Block[ 0]            0.00000 [K]
	Block[ 1]            0.00000 [K]
	Block[ 2]            0.00000 [K]
	Block[ 3]            0.00000 [K]
	Block[ 4]            0.00000 [K]
	------------------------------------------------------------------------------
	Average              0.00000 [K] +/-            0.00000 [K]

Dihedral-constraints energy:
=======================
	Block[ 0]            0.00000 [K]
	Block[ 1]            0.00000 [K]
	Block[ 2]            0.00000 [K]
	Block[ 3]            0.00000 [K]
	Block[ 4]            0.00000 [K]
	------------------------------------------------------------------------------
	Average              0.00000 [K] +/-            0.00000 [K]

Inversion-bend constraints energy:
=======================
	Block[ 0]            0.00000 [K]
	Block[ 1]            0.00000 [K]
	Block[ 2]            0.00000 [K]
	Block[ 3]            0.00000 [K]
	Block[ 4]            0.00000 [K]
	------------------------------------------------------------------------------
	Average              0.00000 [K] +/-            0.00000 [K]

Out-of-plane-distance constraints energy:
=======================
	Block[ 0]            0.00000 [K]
	Block[ 1]            0.00000 [K]
	Block[ 2]            0.00000 [K]
	Block[ 3]            0.00000 [K]
	Block[ 4]            0.00000 [K]
	------------------------------------------------------------------------------
	Average              0.00000 [K] +/-            0.00000 [K]

Exclusion-constraints energy:
=======================
	Block[ 0]            0.00000 [K]
	Block[ 1]            0.00000 [K]
	Block[ 2]            0.00000 [K]
	Block[ 3]            0.00000 [K]
	Block[ 4]            0.00000 [K]
	------------------------------------------------------------------------------
	Average              0.00000 [K] +/-            0.00000 [K]

Total energy:
=============
	Block[ 0]      -499390.81519 [K]
	Block[ 1]      -506795.18561 [K]
	Block[ 2]      -512241.00932 [K]
	Block[ 3]      -514079.57242 [K]
	Block[ 4]      -517029.61153 [K]
	------------------------------------------------------------------------------
	Average        -509907.23881 [K] +/-        12453.53240 [K]

Number of molecules:
====================

Component 0 [argon]
-------------------------------------------------------------
	Block[ 0] 176.00055          [-]
	Block[ 1] 179.69555          [-]
	Block[ 2] 182.21450          [-]
	Block[ 3] 183.04575          [-]
	Block[ 4] 184.50680          [-]
	------------------------------------------------------------------------------
	Average                                    181.0926300000 +/-       5.9740062319 [-]
	Average loading absolute [molecules/unit cell]        3.7727631250 +/-       0.1244584632 [-]
	Average loading absolute [mol/kg framework]          7.8488954789 +/-       0.2589246758 [-]
	Average loading absolute [milligram/gram framework]        313.5476765925 +/-      10.3435229471 [-]
	Average loading absolute [cm^3 (STP)/gr framework]        175.9249529102 +/-       5.8035314028 [-]
	Average loading absolute [cm^3 (STP)/cm^3 framework]        310.9020596407 +/-      10.2562475447 [-]

	Block[ 0] 176.00055          [-]
	Block[ 1] 179.69555          [-]
	Block[ 2] 182.21450          [-]
	Block[ 3] 183.04575          [-]
	Block[ 4] 184.50680          [-]
	------------------------------------------------------------------------------
	Average                                    181.0926300000 +/-       5.9740062319 [-]
	Average loading excess [molecules/unit cell]        3.7727631250 +/-       0.1244584632 [-]
	Average loading excess [mol/kg framework]          7.8488954789 +/-       0.2589246758 [-]
	Average loading excess [milligram/gram framework]        313.5476765925 +/-      10.3435229471 [-]
	Average loading excess [cm^3 (STP)/gr framework]        175.9249529102 +/-       5.8035314028 [-]
	Average loading excess [cm^3 (STP)/cm^3 framework]        310.9020596407 +/-      10.2562475447 [-]


Average Widom Rosenbluth factor:
================================
	Block[ 0] 0 [-]
	Block[ 1] 0 [-]
	Block[ 2] 0 [-]
	Block[ 3] 0 [-]
	Block[ 4] 0 [-]
	------------------------------------------------------------------------------
	[argon] Average Widom Rosenbluth-weight:   0 +/- 0.000000 [-]

Average Widom chemical potential:
=================================
	Block[ 0] 0 [-]
	Block[ 1] 0 [-]
	Block[ 2] 0 [-]
	Block[ 3] 0 [-]
	Block[ 4] 0 [-]
	------------------------------------------------------------------------------
	[argon] Average chemical potential:   0 +/- 0.000000 [K]

Average Widom Ideal-gas contribution:
=====================================
	Block[ 0] 0 [-]
	Block[ 1] 0 [-]
	Block[ 2] 0 [-]
	Block[ 3] 0 [-]
	Block[ 4] 0 [-]
	------------------------------------------------------------------------------
	[argon] Average Widom Ideal-gas chemical potential:   0 +/- 0.000000 [-]

Average Widom excess contribution:
==================================
	Block[ 0] 0 [-]
	Block[ 1] 0 [-]
	Block[ 2] 0 [-]
	Block[ 3] 0 [-]
	Block[ 4] 0 [-]
	------------------------------------------------------------------------------
	[argon] Average Widom excess chemical potential:   0 +/- 0.000000 [-]

Average Gibbs Widom Rosenbluth factor:
======================================
	Block[ 0] 0 [-]
	Block[ 1] 0 [-]
	Block[ 2] 0 [-]
	Block[ 3] 0 [-]
	Block[ 4] 0 [-]
	------------------------------------------------------------------------------
	[argon] Average Gibbs Widom Rosenbluth-weight:   0 +/- 0.000000 [-]

Average Gibbs Widom chemical potential:
=======================================
	Block[ 0] 0 [-]
	Block[ 1] 0 [-]
	Block[ 2] 0 [-]
	Block[ 3] 0 [-]
	Block[ 4] 0 [-]
	------------------------------------------------------------------------------
	[argon] Average Gibbs chemical potential:   0 +/- 0.000000 [K]

Average Gibbs Widom Ideal-gas contribution:
===========================================
	Block[ 0] 0 [-]
	Block[ 1] 0 [-]
	Block[ 2] 0 [-]
	Block[ 3] 0 [-]
	Block[ 4] 0 [-]
	------------------------------------------------------------------------------
	[argon] Average Gibbs Ideal-gas chemical potential:   0 +/- 0.000000 [-]

Average Gibbs Widom excess contribution:
===========================================
	Block[ 0] 0 [-]
	Block[ 1] 0 [-]
	Block[ 2] 0 [-]
	Block[ 3] 0 [-]
	Block[ 4] 0 [-]
	------------------------------------------------------------------------------
	[argon] Average Gibbs excess chemical potential:   0 +/- 0.000000 [-]

Average Henry coefficient:
==========================
	Block[ 0] 0 [mol/kg/Pa]
	Block[ 1] 0 [mol/kg/Pa]
	Block[ 2] 0 [mol/kg/Pa]
	Block[ 3] 0 [mol/kg/Pa]
	Block[ 4] 0 [mol/kg/Pa]
	------------------------------------------------------------------------------
	[argon] Average Henry coefficient:  0 +/- 0 [mol/kg/Pa]

Average adsorption energy <U_gh>_1-<U_h>_0 obtained from Widom-insertion:
(Note: the total heat of adsorption is dH=<U_gh>_1-<U_h>_0 - <U_g> - RT)
=========================================================================

Simulation finished,  0 warnings


Mon Jun  7 02:08:12 2021
Simulation finished on Monday, June 07.
The end time was 02:08 AM.

