Compiler and run-time data
===========================================================================
RASPA 2.0.37
Compiled as a 64-bits application
Compiler: gcc Intel(R) C++ gcc 4.8.5 mode
Compile Date = May 12 2020, Compile Time = 18:40:55

Thu Jun 10 05:46:21 2021
Simulation started on Thursday, June 10.
The start time was 05:46 AM.

Hostname:    The start time was 05:46 AM.
OS type:     The start time was 05:46 AM.
OS release:  The start time was 05:46 AM.
OS version:  The start time was 05:46 AM.

Simulation
===========================================================================
Dimensions: 3
Random number seed: 1623300377
RASPA directory set to: /mnt/iusers01/ceas01/m86397ah/Installed_software/RASPA
String appended to output-files: 
Number of cycles: 50000
Number of initializing cycles: 50000
Number of equilibration cycles: 0
Print every: 500
Triclinic boundary condition applied
Timestep: 0.000500
	Degrees of freedom:                        0
	Translational Degrees of freedom:          0
	Rotational Degrees of freedom:             0
	Degrees of freedom Framework:              0


Mutual consistent basic set of units:
======================================
Unit of temperature: Kelvin
Unit of length:      1e-10 [m]
Unit of time:        1e-12 [s]
Unit of mass:        1.66054e-27 [kg]
Unit of charge:      1.60218e-19 [C/particle]

Derived units and their conversion factors:
===========================================
Unit of energy:              1.66054e-23 [J]
Unit of force:               1.66054e-13 [N]
Unit of pressure:            1.66054e+07 [Pa]
Unit of velocity:            100 [m/s]
Unit of acceleration:        1e-08 [m^2/s]
Unit of diffusion:           1e-08 [m^2/s]
Unit of dipole moment:       1.60218e-29 [C.m]
Unit of electric potential:  0.000103643 [V]
Unit of electric field:      1.03643e+06 [V]
Unit of polarizability:      1.54587e-35 [-]
Unit of Coulomb potential:   167101.0800066561  [K]
Unit of dielectric constant: 0.0000154587       [s^2 C^2/(kg m^3)]
Unit of wave vectors:        5.3088374589       [cm^1]
Boltzmann constant:          0.8314464919       [-]

Internal conversion factors:
===========================================
Energy to Kelvin:                                    1.2027242847
FH correction factor                                 2.0211930949
Heat capacity conversion factor:                    10.0000088723
From Debye to internal units:                        4.8032067991
Isothermal compressibility conversion factor:        0.0000000602

Energy conversion factors:
===========================================
From mdyne/A to kcal/mol/A^2:           143.933
From mdyne/A to kj/mol/A^2:             602.214
From mdyne/A to K/A^2:                  72429.7
From mdyne A/rad^2 to kcal/mol/deg^2:   0.0438444


Properties computed
===========================================================================
Movies: yes
	Movie snapshots are appended to file every 1000 cycles
Radial Distribution Function: no
Number of molecules GCMC histogram: no
Histogram of the molecule positions: no
Free energy profiles: no
Pore Size Distribution Function: no
End-to-end distance: no
Histogram of the energy of the system: no
Compute thermodynamic factors: no
Framework spacing histograms: no
Residence times histograms: no
Distance histograms: no
Bend Angle histograms: no
Dihedral angle histograms: no
Angle between planes histograms: no
Molecule properties: no
Infra-red spectra: no
Mean-squared displacement using modified order-N algorithm: no
Velocity-autocorrelation function modified order-N algorithm: no
Rotational velocity-autocorrelation function modified order-N algorithm: no
Molecular orientation-autocorrelation function modified order-N algorithm: no
Bond orientation-autocorrelation function modified order-N algorithm: no
Mean-squared displacement (conventional algorithm): no
Velocity-autocorrelation function (conventional algorithm): no
3D density grid for adsorbates: no
Compute cation an/or adsorption sites: no
dcTST snapshots: no
Compute pressure and stress: no


VTK
===========================================================================
VTK fractional-range position framework atoms: [-0.001000,1.001000] [-0.001000,1.001000] [-0.001000,1.001000]
VTK fractional-range position framework bonds: [-0.151000,1.151000] [-0.151000,1.151000] [-0.151000,1.151000]
VTK fractional-range com-position adsorbate molecules: [-0.101000,1.101000] [-0.101000,1.101000] [-0.101000,1.101000]
VTK fractional-range com-position cation molecules: [-0.101000,1.101000] [-0.101000,1.101000] [-0.101000,1.101000]
	3D free energy grid made for the full simulation-cell


Thermo/Baro-stat NHC parameters
===========================================================================
External temperature: 87 [K]
Beta: 0.0138244 [energy unit]
External Pressure: 101325 [Pa]


Thermostat chain-length: 3
Timescale parameter for thermostat: 0.150000 [ps]
Barostat chain-length:   3
Timescale parameter for barostat:   0.150000 [ps]

Number of Yoshida-Suzuki decomposition steps: 5
Number of respa steps: 5


Method and settings for electrostatics
===============================================================================
Dielectric constant of the medium : 1.000000
Charge from charge-equilibration: no
Ewald summation is used (exact solution of a periodic system)
Relative precision                : 1e-06
Alpha convergence parameter       : 0.265058
kvec (x,y,z)                      : 13 13 13


CFC-RXMC parameters
===========================================================================
Number of reactions: 0


Rattle parameters
===========================================================================
Distance constraint type: r^2-r^2_0
Bend angle constraint type: theta-theta_0
Dihedral angle constraint type: phi-phi_0
Inversion-bend angle constraint type: chi-chi_0
Out-of-plane distance constraint type: r-r_0


Spectra parameters
===========================================================================
Compute normal modes: no


Minimization parameters
===========================================================================
Generalized coordinates are: Cartesian center-of-mass, elements of the orientational matrix p1,p2,p3 and strain
Potential derivatives are evaluated: analytically
Translation of the system is removed from the generalized Hessian: no
Rotation of the system is removed from the generalized Hessian: no
Maximum step-length: 0.3
Convergence factor: 1
Maximum number of minimization steps: 10000
Use gradients in the line-minimizations: yes
RMS gradient tolerance: 1e-06
Maximum gradient tolerance: 1e-06

Distance constraints: 0
Angle constraints: 0
Dihedral constraints: 0

Improper dihedral constraints: 0

Inversion-bend constraints: 0

Out-of-plane constraints: 0

Harmonic distance constraints: 0
Harmonic angle constraints: 0
Harmonic dihedral constraints: 0

Dihedral mid-point measurements: 0

All framework atoms are fixed

Fixed adsorbate atoms:  
Fixed adsorbate groups (center-of-mass):  
Fixed adsorbate groups (orientation):  

Fixed cation atoms:  
Fixed cation groups (center-of-mass):  
Fixed cation groups (orientation):  


dcTST parameters
===========================================================================
Free energy profiles computed: no
Free energy profiles written every 5000 cycles
Free energy mapping: mapped to a,b,c-coordinates
BarrierPosition:       0.0000000000       0.0000000000       0.0000000000
BarrierNormal:         0.0000000000       0.0000000000       0.0000000000
Start with a molecule on top of the barrier: no
Maximum distance to barrier (e.g. distance to minumum free energy):       0.0000000000 [A]
Maximum trajectory time:      10.0000000000 [ps]
Each configuration is used with 5 different initial velocities


Cbmc parameters
===========================================================================
Biasing method: using only the VDW part
Number of trial positions:                                       10
Number of trial positions (reinsertion):                         10
Number of trial positions (partial reinsertion):                 10
Number of trial positions (identity-change):                     10
Number of trial positions (Gibbs particle transfer):             10
Number of trial positions (insertion/deletion):                  10
Number of trial positions (Widom insertion):                     10
Number of trial positions coupled Torsion-selection:             100
Number of trial positions first bead:                            10
Number of trial positions first bead (reinsertion):              10
Number of trial positions first bead (partial reinsertion):      10
Number of trial positions first bead (identity-change):          10
Number of trial positions first bead (Gibbs particle transfer):  10
Number of trial positions first bead (insertion/deletion):       10
Number of trial positions first bead (Widom insertion):          10
Number of trial moves per open bead:                             150
Target acceptance ratio small-mc scheme:                         0.400000
Energy overlap criteria:                                         1e+07
Minimal Rosenbluth factor:                                       1e-150


Pseudo atoms: 7
===========================================================================
Pseudo Atom[   0] Name UNIT     Oxidation:          Element: H    pdb-name: H    Scat. Types:   1   1 Mass=1.000000000  B-factor:0.000   
                 Charge=1.000000000          Polarization=0.000000000  [A^3] (considered a charged atom and no polarization)  Interactions: yes
                 Anisotropic factor:    0.000 [-] (Absolute), Radius:    1.000 [A], Framework-atom:  no
Pseudo Atom[   1] Name DUMMY    Oxidation: +0       Element: H    pdb-name: H    Scat. Types:   1   1 Mass=1.000000000  B-factor:1.000   
                 Charge=0.000000000          Polarization=0.000000000  [A^3] (considered a chargeless atom and no polarization)  Interactions:  no
                 Anisotropic factor:    0.000 [-] (Absolute), Radius:    1.000 [A], Framework-atom:  no
Pseudo Atom[   2] Name He       Oxidation: +0       Element: He   pdb-name: He   Scat. Types:   3   2 Mass=4.002602000  B-factor:1.000   
                 Charge=0.000000000          Polarization=0.000000000  [A^3] (considered a chargeless atom and no polarization)  Interactions: yes
                 Anisotropic factor:    0.000 [-] (Absolute), Radius:    1.000 [A], Framework-atom:  no
Pseudo Atom[   3] Name Ar       Oxidation: +0       Element: Ar   pdb-name: Ar   Scat. Types:  19  18 Mass=39.948000000 B-factor:1.000   
                 Charge=0.000000000          Polarization=0.000000000  [A^3] (considered a chargeless atom and no polarization)  Interactions: yes
                 Anisotropic factor:    0.000 [-] (Absolute), Radius:    1.000 [A], Framework-atom:  no
Pseudo Atom[   4] Name T        Oxidation: +0       Element: Si   pdb-name: Si   Scat. Types:  15  14 Mass=28.085500000 B-factor:1.000   
                 Charge=0.000000000          Polarization=0.000000000  [A^3] (considered a chargeless atom and no polarization)  Interactions: yes
                 Anisotropic factor:    0.000 [-] (Absolute), Radius:    1.180 [A], Framework-atom: yes (charge from pseudo-atoms file)
Pseudo Atom[   5] Name Al       Oxidation: +0       Element: Al   pdb-name: Al   Scat. Types:  14  13 Mass=26.981539000 B-factor:1.000   
                 Charge=0.000000000          Polarization=0.000000000  [A^3] (considered a chargeless atom and no polarization)  Interactions: yes
                 Anisotropic factor:    0.000 [-] (Absolute), Radius:    1.180 [A], Framework-atom:  no
Pseudo Atom[   6] Name O        Oxidation: +0       Element: O    pdb-name: O    Scat. Types:   9   8 Mass=15.999400000 B-factor:1.000   
                 Charge=0.000000000          Polarization=0.000000000  [A^3] (considered a chargeless atom and no polarization)  Interactions: yes
                 Anisotropic factor:    0.000 [-] (Absolute), Radius:    0.500 [A], Framework-atom: yes (charge from pseudo-atoms file)


Forcefield: local
===========================================================================
Minimal distance: 1
CutOff VDW : 12.800000 (163.840000)
CutOff VDW switching on: 11.520000 (132.710400)
CutOff charge-charge : 12.000000 (144.000000)
CutOff charge-charge switching on: 7.800000 (60.840000)
CutOff charge-bonddipole : 12.000000 (144.000000)
CutOff charge-bondipole switching on: 8.400000 (70.560000)
CutOff bonddipole-bonddipole : 12.000000 (144.000000)
CutOff bonddipole-bondipole switching on: 9.000000 (81.000000)
Polarization is neglected
All potentials are unshifted !!!!!!

General mixing rule: Lorentz-Berthelot mixing rules are used FIRST for cross terms
0 cross terms are overwritten using the individual mixing rules from the file 'force_field_mixing_rules.def'
and then 0 terms are overwritten using the specific interactions from the file 'force_field.def'

The force field and all the interactions:
     He -      He [LENNARD_JONES] p_0/k_B:  10.22000 [K], p_1: 2.58000 [A], shift/k_B:   0.00000000 [K], tailcorrection: no
     He -      Ar [LENNARD_JONES] p_0/k_B:  34.99080 [K], p_1: 2.99000 [A], shift/k_B:   0.00000000 [K], tailcorrection: no
     He -       T [LENNARD_JONES] p_0/k_B:  45.45298 [K], p_1: 3.20300 [A], shift/k_B:   0.00000000 [K], tailcorrection: no
     He -      Al [LENNARD_JONES] p_0/k_B:  50.94376 [K], p_1: 3.29400 [A], shift/k_B:   0.00000000 [K], tailcorrection: no
     He -       O [LENNARD_JONES] p_0/k_B:  17.56827 [K], p_1: 2.84900 [A], shift/k_B:   0.00000000 [K], tailcorrection: no
     Ar -      Ar [LENNARD_JONES] p_0/k_B: 119.80000 [K], p_1: 3.40000 [A], shift/k_B:   0.00000000 [K], tailcorrection: no
     Ar -       T [LENNARD_JONES] p_0/k_B: 155.61995 [K], p_1: 3.61300 [A], shift/k_B:   0.00000000 [K], tailcorrection: no
     Ar -      Al [LENNARD_JONES] p_0/k_B: 174.41907 [K], p_1: 3.70400 [A], shift/k_B:   0.00000000 [K], tailcorrection: no
     Ar -       O [LENNARD_JONES] p_0/k_B:  60.14948 [K], p_1: 3.25900 [A], shift/k_B:   0.00000000 [K], tailcorrection: no
      T -       T [LENNARD_JONES] p_0/k_B: 202.15000 [K], p_1: 3.82600 [A], shift/k_B:   0.00000000 [K], tailcorrection: no
      T -      Al [LENNARD_JONES] p_0/k_B: 226.57001 [K], p_1: 3.91700 [A], shift/k_B:   0.00000000 [K], tailcorrection: no
      T -       O [LENNARD_JONES] p_0/k_B:  78.13405 [K], p_1: 3.47200 [A], shift/k_B:   0.00000000 [K], tailcorrection: no
     Al -      Al [LENNARD_JONES] p_0/k_B: 253.94000 [K], p_1: 4.00800 [A], shift/k_B:   0.00000000 [K], tailcorrection: no
     Al -       O [LENNARD_JONES] p_0/k_B:  87.57276 [K], p_1: 3.56300 [A], shift/k_B:   0.00000000 [K], tailcorrection: no
      O -       O [LENNARD_JONES] p_0/k_B:  30.20000 [K], p_1: 3.11800 [A], shift/k_B:   0.00000000 [K], tailcorrection: no


MoleculeDefinitions:
===========================================================================
Component 0 [argon] (Adsorbate molecule)

	MoleculeDefinitions: argon
	Component contains no atoms with charge
	Component contains no atoms with point dipoles (polarization)
	Component has a net charge of 0.000000

	Ideal chain Rosenbluth weight: 1
	Ideal chain total energy: 0.000000

	Critical temparure [K]: 154.580000
	Critical pressure [Pa]: 5043000.000000
	Acentric factor [-]: 0.000000

	RXMC partition factor ln(q/V) [ln(A^(-3))]:       0.0000000000

	Liquid=stable, Vapour=metastable

	MolFraction:           1.0000000000 [-]
	Compressibility:       0.0034503778 [-]

	Density of the bulk fluid phase:    1621.7781374247 [kg/m^3]

	Binary mixture EOS parameters:  (0): 0.000000

	Amount of excess molecules:       0.0000000000 [-]

	Conversion factor molecules/unit cell -> mol/kg:       0.0866837649 [-]
	Conversion factor molecules/unit cell -> mg/g:       3.4628430389 [-]
	Conversion factor molecules/unit cell -> cm^3 STP/gr:       1.9429278034 [-]
	Conversion factor molecules/unit cell -> cm^3 STP/cm^3:       2.5795180408 [-]
	Conversion factor mol/kg -> cm^3 STP/gr:      22.4139757476 [-]
	Conversion factor mol/kg -> cm^3 STP/cm^3:      29.7577988767 [-]

	Partial pressure:    101325.00000000000000 [Pa]
	                        759.93750000000000 [Torr]
	                          1.01325000000000 [bar]
	                          1.00000000000000 [atm]

	Fugacity coefficient:       1.0000000000 [-]

	Partial fugacity:    101325.00000000000000 [Pa]
	                        759.93750000000000 [Torr]
	                          1.01325000000000 [bar]
	                          1.00000000000000 [atm]

	Molecule contains 1 number of atoms
		atom:    0  is of type:    3 [        Ar] (group: 0)

	Molecule contains 0 chirality centers

	Molecule contains 1 number of groups

		group: 0 containing: 1 elements
		-------------------------------------------------
		the group is modelled as flexible, i.e. no constraints
		Mass: 39.948000 [a.u.]
		Mass: 0.574678 [kg/m^3]

		Rotational Degrees of freedom: 0
		Diagonalized inertia vector:       0.0000000000
		                                   0.0000000000
		                                   0.0000000000
		element: 0 atom: 0 [        Ar] Charge:  0.000000 Anisotropy: 0.000000 Connectivity: 0 ()

		Dipole:           0.0000000000 [D]
		Quadrupole:       0.0000000000       0.0000000000       0.0000000000 [D Angstrom]
		Quadrupole tensor [D Angstrom]
				       0.0000000000       0.0000000000       0.0000000000
				       0.0000000000       0.0000000000       0.0000000000
				       0.0000000000       0.0000000000       0.0000000000

	Starting bead for growth               : 0

	Degrees of freedom                     : 0
	Translational degrees of freedom       : 0
	Rotational degrees of freedom          : 0
	Vibrational degrees of freedom         : 0
	Constraint degrees of freedom          : 0

	Number of atoms                        : 1

	Number of constraint bonds             : 0
	Number of constraint bends             : 0
	Number of constraint inversion bends   : 0
	Number of constraint torsions          : 0
	Number of constraint improper torsions : 0
	Number of constraint improper torsions : 0

	Number of bonds                        : 0
	Number of Urey-Bradleys                : 0
	Number of bends                        : 0
	Number of inversion bends              : 0
	Number of torsions                     : 0
	Number of improper torsions            : 0
	Number of improper torsions            : 0

	Number of bond/bond cross terms        : 0
	Number of bond/bend cross terms        : 0
	Number of bend/bend cross terms        : 0
	Number of stretch/torsion cross terms  : 0
	Number of bend/torsion cross terms     : 0

	Number of charges                      : 0
	Number of bond-dipoles                 : 0

	Number of intra Van der Waals                             : 0
	Number of intra charge-charge Coulomb                     : 0
	Number of intra charge-bonddipole Coulomb                 : 0
	Number of intra bonddipole-bonddipole Coulomb             : 0

	Number of excluded intra charge-charge Coulomb                     : 0
	Number of excluded intra charge-bonddipole Coulomb                 : 0
	Number of excluded intra bonddipole-bonddipole Coulomb             : 0

	Number of cbmc-config moves                               : 0

	Particle Moves:             
		ProbabilityTranslationMove:                  20.000000
			TranslationDirection:      XYZ
		Percentage of random translation moves:            0.000000
		Percentage of rotation moves:                      20.000000
		Percentage of random rotation moves:               0.000000
		Percentage of partial reinsertion moves:           0.000000
		Percentage of reinsertion moves:                   20.000000
		Percentage of reinsertion-in-place moves:          0.000000
		Percentage of reinsertion-in-plane moves:          0.000000
		Percentage of identity-change moves:               0.000000
		Percentage of swap (insert/delete) moves:          40.000000
		Percentage of CF swap lambda moves:                0.000000
		Percentage of CB/CFMC swap lambda moves:           0.000000
		Percentage of Widom insertion moves:               0.000000
		Percentage of CF-Widom insertion moves:            0.000000
		Percentage of Gibbs Widom insertion moves:         0.000000
		Percentage of surface-area moves:                  0.000000
		Percentage of Gibbs particle-transfer moves:       0.000000
		Percentage of Gibbs identity-change moves:         0.000000
		Percentage of CF Gibbs lambda-transfer moves:      0.000000
		Percentage of CB/CFMC Gibbs lambda-transfer moves: 0.000000
		Percentage of exchange frac./int. particle moves:  0.000000
		Percentage of fractional mol. to other box moves:  0.000000
		Percentage of lambda-change moves:                 0.000000
		Percentage of fractional to integer moves:         0.000000

	System Moves:
		Percentage of parallel-tempering moves:            0.000000
		Percentage of hyper-parallel-tempering moves:      0.000000
		Percentage of parallel-mol-fraction moves:         0.000000
			   Component A: 0 B: 1
		Percentage of chiral inversion moves:              0.000000
		Percentage of Hybrid-NVE moves:                    0.000000
		Percentage of Hybrid-NPH moves:                    0.000000
		Percentage of Hybrid-NPHPR moves:                  0.000000
		Percentage of volume-change moves:                 0.000000
		Percentage of box-shape-change moves:              0.000000
		Percentage of Gibbs volume-change moves:           0.000000
		Percentage of framework-change moves:              0.000000
		Percentage of framework-shift moves:               0.000000
		Percentage of reactive MC moves:                   0.000000

	Moves are restricted: No
	No biased sampling used for this component


	number of identity-config changes: 1
	--------------------------------------------
	nr fixed 1: 0 

	Number of pockets blocked in a unitcell: 0
		Pockets are NOT blocked for this component



Framework Status
===========================================================================
Lowenstein's rule obeyed by framework
	Framework is modelled as: rigid

	Number of charges:                               0
	Number of bonddipoles:                           0


System Properties
===========================================================================
Unit cell size: 24.345000 24.345000 24.345000
Cell angles (radians)  alpha: 1.570796 beta: 1.570796 gamma: 1.570796
Cell angles (degrees)  alpha: 90.000000 beta: 90.000000 gamma: 90.000000
Number of unitcells [a]: 2
Number of unitcells [b]: 2
Number of unitcells [c]: 2

TRICLINIC Boundary conditions: alpha!=90 or beta!=90 or gamma!=90

Cartesian axis A is collinear with crystallographic axis a
Cartesian axis B is collinear with (axb)xA
Cartesian axis C is collinear with (axb)

lengths of cell vectors:
 48.69000  48.69000  48.69000
cosines of cell angles:
  0.00000   0.00000   0.00000
perpendicular cell widths:
 48.69000  48.69000  48.69000
volume of the cell: 115430.166908999978 (A^3)

Orthogonalization matrix Box
Transforms fractional coordinates abc into orthonormal Cartesian coordinates xyz
Deorthogonalization matrix InverseBox
Transforms orthonormal Cartesian coordinates xyz into fractional coordinates xyz

Box[0]:
	   48.690000000000     0.000000000000     0.000000000000
	    0.000000000000    48.690000000000     0.000000000000
	    0.000000000000     0.000000000000    48.690000000000

Inverse box[0]:
	    0.020538098172    -0.000000000000    -0.000000000000
	    0.000000000000     0.020538098172    -0.000000000000
	    0.000000000000     0.000000000000     0.020538098172


Unitcell box[0]:
	   24.345000000000     0.000000000000     0.000000000000
	    0.000000000000    24.345000000000     0.000000000000
	    0.000000000000     0.000000000000    24.345000000000

Unitcell inverse box[0]:
	    0.041076196344    -0.000000000000    -0.000000000000
	    0.000000000000     0.041076196344    -0.000000000000
	    0.000000000000     0.000000000000     0.041076196344

lengths of cell vectors (inverse box):
  0.02054   0.02054   0.02054
cosines of cell angles (inverse box):
 -0.00000  -0.00000  -0.00000
perpendicular cell widths (inverse):
  0.02054   0.02054   0.02054
volume of the cell: 115430.166908999978 (A^3)

No replicas are used
Framework is simulated as 'rigid'
Number of framework atoms: 4608
Number of framework atoms in the unit cell: 576
Framework Mass: 92289.484800002872 [g/mol]
Framework Density:  1327.644823559534 [kg/m^3]    0.7532134967535 [cm^3/g]
Helium void fraction:    0.00000000
Available pore volume:    0.00000000 [A^3]    0.00000000 [cm^3/g]
Conversion factor from molecule/unit cell -> kmol/m^3: 0.0143857, kmol/m^3 accesible pore volume: inf

Number Of Frameworks (per system): 1
----------------------------------------------------------------------
Framework name: zeolite
Space group: 227
	Identifier: 526
	short international Hermann-Mauguin symbol: F d -3 m:2
	long international Hermann-Mauguin symbol: F 41/d -3 2/m:2
	Hall symbol: -F 4vw 2vw 3
	Number of lattice translations: 4 [ (0,0,0) (0,0.5,0.5) (0.5,0,0.5) (0.5,0.5,0) ]
	acentric/centric: acentric
	chiral: yes
	enantiomorphic: no
	number of operators: 192
		'x,y,z'
		'-x+3/4,-y+1/4,z+1/2'
		'-x+1/4,y+1/2,-z+3/4'
		'x+1/2,-y+3/4,-z+1/4'
		'z,x,y'
		'z+1/2,-x+3/4,-y+1/4'
		'-z+3/4,-x+1/4,y+1/2'
		'-z+1/4,x+1/2,-y+3/4'
		'y,z,x'
		'-y+1/4,z+1/2,-x+3/4'
		'y+1/2,-z+3/4,-x+1/4'
		'-y+3/4,-z+1/4,x+1/2'
		'y+3/4,x+1/4,-z+1/2'
		'-y,-x,-z'
		'y+1/4,-x+1/2,z+3/4'
		'-y+1/2,x+3/4,z+1/4'
		'x+3/4,z+1/4,-y+1/2'
		'-x+1/2,z+3/4,y+1/4'
		'-x,-z,-y'
		'x+1/4,-z+1/2,y+3/4'
		'z+3/4,y+1/4,-x+1/2'
		'z+1/4,-y+1/2,x+3/4'
		'-z+1/2,y+3/4,x+1/4'
		'-z,-y,-x'
		'-x,-y,-z'
		'x+1/4,y+3/4,-z+1/2'
		'x+3/4,-y+1/2,z+1/4'
		'-x+1/2,y+1/4,z+3/4'
		'-z,-x,-y'
		'-z+1/2,x+1/4,y+3/4'
		'z+1/4,x+3/4,-y+1/2'
		'z+3/4,-x+1/2,y+1/4'
		'-y,-z,-x'
		'y+3/4,-z+1/2,x+1/4'
		'-y+1/2,z+1/4,x+3/4'
		'y+1/4,z+3/4,-x+1/2'
		'-y+1/4,-x+3/4,z+1/2'
		'y,x,z'
		'-y+3/4,x+1/2,-z+1/4'
		'y+1/2,-x+1/4,-z+3/4'
		'-x+1/4,-z+3/4,y+1/2'
		'x+1/2,-z+1/4,-y+3/4'
		'x,z,y'
		'-x+3/4,z+1/2,-y+1/4'
		'-z+1/4,-y+3/4,x+1/2'
		'-z+3/4,y+1/2,-x+1/4'
		'z+1/2,-y+1/4,-x+3/4'
		'z,y,x'
		'x,y+1/2,z+1/2'
		'-x+3/4,-y+3/4,z'
		'-x+1/4,y,-z+1/4'
		'x+1/2,-y+1/4,-z+3/4'
		'z,x+1/2,y+1/2'
		'z+1/2,-x+1/4,-y+3/4'
		'-z+3/4,-x+3/4,y'
		'-z+1/4,x,-y+1/4'
		'y,z+1/2,x+1/2'
		'-y+1/4,z,-x+1/4'
		'y+1/2,-z+1/4,-x+3/4'
		'-y+3/4,-z+3/4,x'
		'y+3/4,x+3/4,-z'
		'-y,-x+1/2,-z+1/2'
		'y+1/4,-x,z+1/4'
		'-y+1/2,x+1/4,z+3/4'
		'x+3/4,z+3/4,-y'
		'-x+1/2,z+1/4,y+3/4'
		'-x,-z+1/2,-y+1/2'
		'x+1/4,-z,y+1/4'
		'z+3/4,y+3/4,-x'
		'z+1/4,-y,x+1/4'
		'-z+1/2,y+1/4,x+3/4'
		'-z,-y+1/2,-x+1/2'
		'-x,-y+1/2,-z+1/2'
		'x+1/4,y+1/4,-z'
		'x+3/4,-y,z+3/4'
		'-x+1/2,y+3/4,z+1/4'
		'-z,-x+1/2,-y+1/2'
		'-z+1/2,x+3/4,y+1/4'
		'z+1/4,x+1/4,-y'
		'z+3/4,-x,y+3/4'
		'-y,-z+1/2,-x+1/2'
		'y+3/4,-z,x+3/4'
		'-y+1/2,z+3/4,x+1/4'
		'y+1/4,z+1/4,-x'
		'-y+1/4,-x+1/4,z'
		'y,x+1/2,z+1/2'
		'-y+3/4,x,-z+3/4'
		'y+1/2,-x+3/4,-z+1/4'
		'-x+1/4,-z+1/4,y'
		'x+1/2,-z+3/4,-y+1/4'
		'x,z+1/2,y+1/2'
		'-x+3/4,z,-y+3/4'
		'-z+1/4,-y+1/4,x'
		'-z+3/4,y,-x+3/4'
		'z+1/2,-y+3/4,-x+1/4'
		'z,y+1/2,x+1/2'
		'x+1/2,y,z+1/2'
		'-x+1/4,-y+1/4,z'
		'-x+3/4,y+1/2,-z+1/4'
		'x,-y+3/4,-z+3/4'
		'z+1/2,x,y+1/2'
		'z,-x+3/4,-y+3/4'
		'-z+1/4,-x+1/4,y'
		'-z+3/4,x+1/2,-y+1/4'
		'y+1/2,z,x+1/2'
		'-y+3/4,z+1/2,-x+1/4'
		'y,-z+3/4,-x+3/4'
		'-y+1/4,-z+1/4,x'
		'y+1/4,x+1/4,-z'
		'-y+1/2,-x,-z+1/2'
		'y+3/4,-x+1/2,z+1/4'
		'-y,x+3/4,z+3/4'
		'x+1/4,z+1/4,-y'
		'-x,z+3/4,y+3/4'
		'-x+1/2,-z,-y+1/2'
		'x+3/4,-z+1/2,y+1/4'
		'z+1/4,y+1/4,-x'
		'z+3/4,-y+1/2,x+1/4'
		'-z,y+3/4,x+3/4'
		'-z+1/2,-y,-x+1/2'
		'-x+1/2,-y,-z+1/2'
		'x+3/4,y+3/4,-z'
		'x+1/4,-y+1/2,z+3/4'
		'-x,y+1/4,z+1/4'
		'-z+1/2,-x,-y+1/2'
		'-z,x+1/4,y+1/4'
		'z+3/4,x+3/4,-y'
		'z+1/4,-x+1/2,y+3/4'
		'-y+1/2,-z,-x+1/2'
		'y+1/4,-z+1/2,x+3/4'
		'-y,z+1/4,x+1/4'
		'y+3/4,z+3/4,-x'
		'-y+3/4,-x+3/4,z'
		'y+1/2,x,z+1/2'
		'-y+1/4,x+1/2,-z+3/4'
		'y,-x+1/4,-z+1/4'
		'-x+3/4,-z+3/4,y'
		'x,-z+1/4,-y+1/4'
		'x+1/2,z,y+1/2'
		'-x+1/4,z+1/2,-y+3/4'
		'-z+3/4,-y+3/4,x'
		'-z+1/4,y+1/2,-x+3/4'
		'z,-y+1/4,-x+1/4'
		'z+1/2,y,x+1/2'
		'x+1/2,y+1/2,z'
		'-x+1/4,-y+3/4,z+1/2'
		'-x+3/4,y,-z+3/4'
		'x,-y+1/4,-z+1/4'
		'z+1/2,x+1/2,y'
		'z,-x+1/4,-y+1/4'
		'-z+1/4,-x+3/4,y+1/2'
		'-z+3/4,x,-y+3/4'
		'y+1/2,z+1/2,x'
		'-y+3/4,z,-x+3/4'
		'y,-z+1/4,-x+1/4'
		'-y+1/4,-z+3/4,x+1/2'
		'y+1/4,x+3/4,-z+1/2'
		'-y+1/2,-x+1/2,-z'
		'y+3/4,-x,z+3/4'
		'-y,x+1/4,z+1/4'
		'x+1/4,z+3/4,-y+1/2'
		'-x,z+1/4,y+1/4'
		'-x+1/2,-z+1/2,-y'
		'x+3/4,-z,y+3/4'
		'z+1/4,y+3/4,-x+1/2'
		'z+3/4,-y,x+3/4'
		'-z,y+1/4,x+1/4'
		'-z+1/2,-y+1/2,-x'
		'-x+1/2,-y+1/2,-z'
		'x+3/4,y+1/4,-z+1/2'
		'x+1/4,-y,z+1/4'
		'-x,y+3/4,z+3/4'
		'-z+1/2,-x+1/2,-y'
		'-z,x+3/4,y+3/4'
		'z+3/4,x+1/4,-y+1/2'
		'z+1/4,-x,y+1/4'
		'-y+1/2,-z+1/2,-x'
		'y+1/4,-z,x+1/4'
		'-y,z+3/4,x+3/4'
		'y+3/4,z+1/4,-x+1/2'
		'-y+3/4,-x+1/4,z+1/2'
		'y+1/2,x+1/2,z'
		'-y+1/4,x,-z+1/4'
		'y,-x+3/4,-z+3/4'
		'-x+3/4,-z+1/4,y+1/2'
		'x,-z+3/4,-y+3/4'
		'x+1/2,z+1/2,y'
		'-x+1/4,z,-y+1/4'
		'-z+3/4,-y+1/4,x+1/2'
		'-z+1/4,y,-x+1/4'
		'z,-y+3/4,-x+3/4'
		'z+1/2,y+1/2,x'
Framework is simulated as 'rigid'
Shift: 0.000000 0.000000 0.000000
Number of framework atoms: 4608
Number of asymmetric atoms: 5
Number of free framework atoms: 0
Number of fixed framework atoms: 4608
Number of framework atoms in the unit cell: 576
Framework Mass: 92289.484800002872 [g/mol]
Framework Density:  1327.644823559534 [kg/m^3]
Framework has net charge: 0.000000
         largest charge : 0.000000
         smallest charge: 0.000000

Using FULL Host-guest interaction calculation (for testing purposes)

Current Atom Status
===========================================================================
Number of framework atoms        : 4608
Number of cations molecules      : 0
Number of adsorbate molecules    : 0
Component    0 :    0 molecules
Pseudo Atoms    0 [    UNIT]:    0 atoms
Pseudo Atoms    1 [   DUMMY]:    0 atoms
Pseudo Atoms    2 [      He]:    0 atoms
Pseudo Atoms    3 [      Ar]:    0 atoms
Pseudo Atoms    4 [       T]: 1536 atoms
Pseudo Atoms    5 [      Al]:    0 atoms
Pseudo Atoms    6 [       O]: 3072 atoms


Current (initial full energy) Energy Status
===========================================================================

Internal energy:
Host stretch energy:                                            0.00000000
Host UreyBradley energy:                                        0.00000000
Host bend energy:                                               0.00000000
Host inversion-bend energy:                                     0.00000000
Host torsion energy:                                            0.00000000
Host improper torsion energy:                                   0.00000000
Host out-of-plane energy:                                       0.00000000
Host stretch/stretch energy:                                    0.00000000
Host bend/bend energy:                                          0.00000000
Host stretch/bend energy:                                       0.00000000
Host stretch/torsion energy:                                    0.00000000
Host bend/torsion energy:                                       0.00000000

Adsorbate stretch energy:                                       0.00000000
Adsorbate UreyBradley energy:                                   0.00000000
Adsorbate bend energy:                                          0.00000000
Adsorbate inversion-bend energy:                                0.00000000
Adsorbate torsion energy:                                       0.00000000
Adsorbate improper torsion energy:                              0.00000000
Adsorbate out-of-plane energy:                                  0.00000000
Adsorbate stretch/stretch energy:                               0.00000000
Adsorbate bend/bend energy:                                     0.00000000
Adsorbate stretch/bend energy:                                  0.00000000
Adsorbate stretch/torsion energy:                               0.00000000
Adsorbate bend/torsion energy:                                  0.00000000
Adsorbate intra VDW energy:                                     0.00000000
Adsorbate intra charge-charge Coulomb energy:                   0.00000000
Adsorbate intra charge-bonddipole Coulomb energy:               0.00000000
Adsorbate intra bonddipole-bonddipole Coulomb energy:           0.00000000

Cation stretch energy:                                          0.00000000
Cation UreyBradley energy:                                      0.00000000
Cation bend energy:                                             0.00000000
Cation inversion-bend energy:                                   0.00000000
Cation torsion energy:                                          0.00000000
Cation improper torsion energy:                                 0.00000000
Cation out-of-plane energy:                                     0.00000000
Cation stretch/stretch energy:                                  0.00000000
Cation bend/bend energy:                                        0.00000000
Cation stretch/bend energy:                                     0.00000000
Cation stretch/torsion energy:                                  0.00000000
Cation bend/torsion energy:                                     0.00000000
Cation intra VDW energy:                                        0.00000000
Cation intra charge-charge Coulomb energy:                      0.00000000
Cation intra charge-bonddipole Coulomb energy:                  0.00000000
Cation intra bonddipole-bonddipole Coulomb energy:              0.00000000

Host/Host energy:                                             0.00000000
	Host/Host VDW energy:                                         0.00000000
	Host/Host Coulomb energy:                                     0.00000000
	Host/Host charge-charge Real energy:                          0.00000000
	Host/Host charge-charge Fourier energy:                       0.00000000
	Host/Host charge-bonddipole Real energy:                      0.00000000
	Host/Host charge-bonddipole Fourier energy:                   0.00000000
	Host/Host bondipole-bonddipole Real energy:                   0.00000000
	Host/Host bondipole-bonddipole Fourier energy:                0.00000000

Host/Adsorbate energy:                                        0.00000000
	Host/Adsorbate VDW energy:                                    0.00000000
	Host/Adsorbate Coulomb energy:                                0.00000000
	Host/Adsorbate charge-charge Real energy:                     0.00000000
	Host/Adsorbate charge-charge Fourier energy:                  0.00000000
	Host/Adsorbate charge-bonddipole Real energy:                 0.00000000
	Host/Adsorbate charge-bonddipole Fourier energy:              0.00000000
	Host/Adsorbate bondipole-bonddipole Real energy:              0.00000000
	Host/Adsorbate bondipole-bonddipole Fourier energy:           0.00000000

Host/Cation energy:                                           0.00000000
	Host/Cation VDW energy:                                       0.00000000
	Host/Cation Coulomb energy:                                   0.00000000
	Host/Cation charge-charge Real energy:                        0.00000000
	Host/Cation charge-charge Fourier energy:                     0.00000000
	Host/Cation charge-bonddipole Real energy:                    0.00000000
	Host/Cation charge-bonddipole Fourier energy:                 0.00000000
	Host/Cation bondipole-bonddipole Real energy:                 0.00000000
	Host/Cation bondipole-bonddipole Fourier energy:              0.00000000

Adsorbate/Adsorbate energy:                                        0.00000000
	Adsorbate/Adsorbate VDW energy:                                    0.00000000
	Adsorbate/Adsorbate Coulomb energy:                                0.00000000
	Adsorbate/Adsorbate charge-charge Real energy:                     0.00000000
	Adsorbate/Adsorbate charge-charge Fourier energy:                  0.00000000
	Adsorbate/Adsorbate charge-bonddipole Real energy:                 0.00000000
	Adsorbate/Adsorbate charge-bonddipole Fourier energy:              0.00000000
	Adsorbate/Adsorbate bondipole-bonddipole Real energy:              0.00000000
	Adsorbate/Adsorbate bondipole-bonddipole Fourier energy:           0.00000000

Adsorbate/Cation energy:                                           0.00000000
	Adsorbate/Cation VDW energy:                                       0.00000000
	Adsorbate/Cation Coulomb energy:                                   0.00000000
	Adsorbate/Cation charge-charge Real energy:                        0.00000000
	Adsorbate/Cation charge-charge Fourier energy:                     0.00000000
	Adsorbate/Cation charge-bonddipole Real energy:                    0.00000000
	Adsorbate/Cation charge-bonddipole Fourier energy:                 0.00000000
	Adsorbate/Cation bondipole-bonddipole Real energy:                 0.00000000
	Adsorbate/Cation bondipole-bonddipole Fourier energy:              0.00000000

Cation/Cation energy:                                           0.00000000
	Cation/Cation VDW energy:                                       0.00000000
	Cation/Cation Coulomb energy:                                   0.00000000
	Cation/Cation charge-charge Real energy:                        0.00000000
	Cation/Cation charge-charge Fourier energy:                     0.00000000
	Cation/Cation charge-bonddipole Real energy:                    0.00000000
	Cation/Cation charge-bonddipole Fourier energy:                 0.00000000
	Cation/Cation bondipole-bonddipole Real energy:                 0.00000000
	Cation/Cation bondipole-bonddipole Fourier energy:              0.00000000

Polarization energy:
	Host polarization energy:                                     0.00000000
	Adsorbate polarization energy:                                0.00000000
	Cation polarization energy:                                   0.00000000
	Host back-polarization energy:                                     0.00000000
	Adsorbate back-polarization energy:                                0.00000000
	Cation back-polarization energy:                                   0.00000000

Tail-correction energy:                                       0.00000000

Distance constraints energy:                                  0.00000000
Angle constraints energy:                                     0.00000000
Dihedral constraints energy:                                  0.00000000
Inversion-bend constraints energy:                            0.00000000
Out-of-plane distance constraints energy:                     0.00000000
Exclusion constraints energy:                                 0.00000000

===================================================================
Total energy:     0.000000000000
	Total Van der Waals: 0.000000
	Total Coulomb: 0.000000

	Total Polarization: 0.000000







+++++++++++++++++++++++++++++++++++++++++++++++++++++++++++++++++++++++++
Starting simulation
+++++++++++++++++++++++++++++++++++++++++++++++++++++++++++++++++++++++++

[Init] Current cycle: 0 out of 50000
========================================================================================================

Net charge: 0 (F: 0, A: 0, C: 0)
Current Box:  48.69000   0.00000   0.00000 [A]
               0.00000  48.69000   0.00000 [A]
               0.00000   0.00000  48.69000 [A]
Box-lengths:  48.69000  48.69000  48.69000 Box-angles:   90.00000  90.00000  90.00000 [degrees]
Volume: 115430.16691 [A^3]

Loadings per component:
----------------------------------------------------------------------------------------------------------------------------------------------------
Component 0 (argon), current number of integer/fractional/reaction molecules: 0/0/0, density:   0.00000 [kg/m^3]
	absolute adsorption:   0.00000 [mol/uc],         0.0000 [mol/kg],              0.0000 [mg/g]
	                                                 0.0000 [cm^3 STP/g],          0.0000 [cm^3 STP/cm^3]
	excess adsorption:     0.00000 [mol/uc],         0.0000 [mol/kg],              0.0000 [mg/g]
	                                                 0.0000 [cm^3 STP/g],          0.0000 [cm^3 STP/cm^3]
----------------------------------------------------------------------------------------------------------------------------------------------------
Degrees of freedom: 0 0 0 0
Number of Framework-atoms:   4608
Number of Adsorbates:           0 (0 integer, 0 fractional, 0 reaction)
Number of Cations:              0 (0 integer, 0 fractional, 0 reaction

Current total potential energy:                 0.0000000000 [K]
	Current Host-Host energy:                     0.0000000000 [K]
	Current Host-Adsorbate energy:                0.0000000000 [K]
	Current Host-Cation energy:                   0.0000000000 [K]
	Current Adsorbate-Adsorbate energy:           0.0000000000 [K]
	Current Cation-Cation energy:                 0.0000000000 [K]
	Current Adsorbate-Cation energy:              0.0000000000 [K]



[Init] Current cycle: 500 out of 50000
========================================================================================================

Net charge: 0 (F: 0, A: 0, C: 0)
Current Box:  48.69000   0.00000   0.00000 [A]
               0.00000  48.69000   0.00000 [A]
               0.00000   0.00000  48.69000 [A]
Box-lengths:  48.69000  48.69000  48.69000 Box-angles:   90.00000  90.00000  90.00000 [degrees]
Volume: 115430.16691 [A^3]

Loadings per component:
----------------------------------------------------------------------------------------------------------------------------------------------------
Component 0 (argon), current number of integer/fractional/reaction molecules: 1094/0/0, density: 628.69851 [kg/m^3]
	absolute adsorption: 136.75000 [mol/uc],        11.8540 [mol/kg],            473.5438 [mg/g]
	                                               265.6954 [cm^3 STP/g],        352.7491 [cm^3 STP/cm^3]
	excess adsorption:   136.75000 [mol/uc],        11.8540 [mol/kg],            473.5438 [mg/g]
	                                               265.6954 [cm^3 STP/g],        352.7491 [cm^3 STP/cm^3]
----------------------------------------------------------------------------------------------------------------------------------------------------
Degrees of freedom: 3282 0 3282 0
Number of Framework-atoms:   4608
Number of Adsorbates:        1094 (1094 integer, 0 fractional, 0 reaction)
Number of Cations:              0 (0 integer, 0 fractional, 0 reaction

Current total potential energy:          -2289969.7864117888 [K]
	Current Host-Host energy:                     0.0000000000 [K]
	Current Host-Adsorbate energy:         -1874837.9407913545 [K]
	Current Host-Cation energy:                   0.0000000000 [K]
	Current Adsorbate-Adsorbate energy:     -415131.8456204400 [K]
	Current Cation-Cation energy:                 0.0000000000 [K]
	Current Adsorbate-Cation energy:              0.0000000000 [K]



[Init] Current cycle: 1000 out of 50000
========================================================================================================

Net charge: 0 (F: 0, A: 0, C: 0)
Current Box:  48.69000   0.00000   0.00000 [A]
               0.00000  48.69000   0.00000 [A]
               0.00000   0.00000  48.69000 [A]
Box-lengths:  48.69000  48.69000  48.69000 Box-angles:   90.00000  90.00000  90.00000 [degrees]
Volume: 115430.16691 [A^3]

Loadings per component:
----------------------------------------------------------------------------------------------------------------------------------------------------
Component 0 (argon), current number of integer/fractional/reaction molecules: 1118/0/0, density: 642.49080 [kg/m^3]
	absolute adsorption: 139.75000 [mol/uc],        12.1141 [mol/kg],            483.9323 [mg/g]
	                                               271.5242 [cm^3 STP/g],        360.4876 [cm^3 STP/cm^3]
	excess adsorption:   139.75000 [mol/uc],        12.1141 [mol/kg],            483.9323 [mg/g]
	                                               271.5242 [cm^3 STP/g],        360.4876 [cm^3 STP/cm^3]
----------------------------------------------------------------------------------------------------------------------------------------------------
Degrees of freedom: 3354 0 3354 0
Number of Framework-atoms:   4608
Number of Adsorbates:        1118 (1118 integer, 0 fractional, 0 reaction)
Number of Cations:              0 (0 integer, 0 fractional, 0 reaction

Current total potential energy:          -2368109.6941521186 [K]
	Current Host-Host energy:                     0.0000000000 [K]
	Current Host-Adsorbate energy:         -1936754.2792798926 [K]
	Current Host-Cation energy:                   0.0000000000 [K]
	Current Adsorbate-Adsorbate energy:     -431355.4148722318 [K]
	Current Cation-Cation energy:                 0.0000000000 [K]
	Current Adsorbate-Cation energy:              0.0000000000 [K]



[Init] Current cycle: 1500 out of 50000
========================================================================================================

Net charge: 0 (F: 0, A: 0, C: 0)
Current Box:  48.69000   0.00000   0.00000 [A]
               0.00000  48.69000   0.00000 [A]
               0.00000   0.00000  48.69000 [A]
Box-lengths:  48.69000  48.69000  48.69000 Box-angles:   90.00000  90.00000  90.00000 [degrees]
Volume: 115430.16691 [A^3]

Loadings per component:
----------------------------------------------------------------------------------------------------------------------------------------------------
Component 0 (argon), current number of integer/fractional/reaction molecules: 1132/0/0, density: 650.53630 [kg/m^3]
	absolute adsorption: 141.50000 [mol/uc],        12.2658 [mol/kg],            489.9923 [mg/g]
	                                               274.9243 [cm^3 STP/g],        365.0018 [cm^3 STP/cm^3]
	excess adsorption:   141.50000 [mol/uc],        12.2658 [mol/kg],            489.9923 [mg/g]
	                                               274.9243 [cm^3 STP/g],        365.0018 [cm^3 STP/cm^3]
----------------------------------------------------------------------------------------------------------------------------------------------------
Degrees of freedom: 3396 0 3396 0
Number of Framework-atoms:   4608
Number of Adsorbates:        1132 (1132 integer, 0 fractional, 0 reaction)
Number of Cations:              0 (0 integer, 0 fractional, 0 reaction

Current total potential energy:          -2405038.7115793782 [K]
	Current Host-Host energy:                     0.0000000000 [K]
	Current Host-Adsorbate energy:         -1960986.1176865327 [K]
	Current Host-Cation energy:                   0.0000000000 [K]
	Current Adsorbate-Adsorbate energy:     -444052.5938928263 [K]
	Current Cation-Cation energy:                 0.0000000000 [K]
	Current Adsorbate-Cation energy:              0.0000000000 [K]



[Init] Current cycle: 2000 out of 50000
========================================================================================================

Net charge: 0 (F: 0, A: 0, C: 0)
Current Box:  48.69000   0.00000   0.00000 [A]
               0.00000  48.69000   0.00000 [A]
               0.00000   0.00000  48.69000 [A]
Box-lengths:  48.69000  48.69000  48.69000 Box-angles:   90.00000  90.00000  90.00000 [degrees]
Volume: 115430.16691 [A^3]

Loadings per component:
----------------------------------------------------------------------------------------------------------------------------------------------------
Component 0 (argon), current number of integer/fractional/reaction molecules: 1147/0/0, density: 659.15649 [kg/m^3]
	absolute adsorption: 143.37500 [mol/uc],        12.4283 [mol/kg],            496.4851 [mg/g]
	                                               278.5673 [cm^3 STP/g],        369.8384 [cm^3 STP/cm^3]
	excess adsorption:   143.37500 [mol/uc],        12.4283 [mol/kg],            496.4851 [mg/g]
	                                               278.5673 [cm^3 STP/g],        369.8384 [cm^3 STP/cm^3]
----------------------------------------------------------------------------------------------------------------------------------------------------
Degrees of freedom: 3441 0 3441 0
Number of Framework-atoms:   4608
Number of Adsorbates:        1147 (1147 integer, 0 fractional, 0 reaction)
Number of Cations:              0 (0 integer, 0 fractional, 0 reaction

Current total potential energy:          -2423363.4475209420 [K]
	Current Host-Host energy:                     0.0000000000 [K]
	Current Host-Adsorbate energy:         -1967404.9594247499 [K]
	Current Host-Cation energy:                   0.0000000000 [K]
	Current Adsorbate-Adsorbate energy:     -455958.4880961904 [K]
	Current Cation-Cation energy:                 0.0000000000 [K]
	Current Adsorbate-Cation energy:              0.0000000000 [K]



[Init] Current cycle: 2500 out of 50000
========================================================================================================

Net charge: 0 (F: 0, A: 0, C: 0)
Current Box:  48.69000   0.00000   0.00000 [A]
               0.00000  48.69000   0.00000 [A]
               0.00000   0.00000  48.69000 [A]
Box-lengths:  48.69000  48.69000  48.69000 Box-angles:   90.00000  90.00000  90.00000 [degrees]
Volume: 115430.16691 [A^3]

Loadings per component:
----------------------------------------------------------------------------------------------------------------------------------------------------
Component 0 (argon), current number of integer/fractional/reaction molecules: 1151/0/0, density: 661.45520 [kg/m^3]
	absolute adsorption: 143.87500 [mol/uc],        12.4716 [mol/kg],            498.2165 [mg/g]
	                                               279.5387 [cm^3 STP/g],        371.1282 [cm^3 STP/cm^3]
	excess adsorption:   143.87500 [mol/uc],        12.4716 [mol/kg],            498.2165 [mg/g]
	                                               279.5387 [cm^3 STP/g],        371.1282 [cm^3 STP/cm^3]
----------------------------------------------------------------------------------------------------------------------------------------------------
Degrees of freedom: 3453 0 3453 0
Number of Framework-atoms:   4608
Number of Adsorbates:        1151 (1151 integer, 0 fractional, 0 reaction)
Number of Cations:              0 (0 integer, 0 fractional, 0 reaction

Current total potential energy:          -2431681.9168884354 [K]
	Current Host-Host energy:                     0.0000000000 [K]
	Current Host-Adsorbate energy:         -1969400.1736515674 [K]
	Current Host-Cation energy:                   0.0000000000 [K]
	Current Adsorbate-Adsorbate energy:     -462281.7432369193 [K]
	Current Cation-Cation energy:                 0.0000000000 [K]
	Current Adsorbate-Cation energy:              0.0000000000 [K]



[Init] Current cycle: 3000 out of 50000
========================================================================================================

Net charge: 0 (F: 0, A: 0, C: 0)
Current Box:  48.69000   0.00000   0.00000 [A]
               0.00000  48.69000   0.00000 [A]
               0.00000   0.00000  48.69000 [A]
Box-lengths:  48.69000  48.69000  48.69000 Box-angles:   90.00000  90.00000  90.00000 [degrees]
Volume: 115430.16691 [A^3]

Loadings per component:
----------------------------------------------------------------------------------------------------------------------------------------------------
Component 0 (argon), current number of integer/fractional/reaction molecules: 1155/0/0, density: 663.75392 [kg/m^3]
	absolute adsorption: 144.37500 [mol/uc],        12.5150 [mol/kg],            499.9480 [mg/g]
	                                               280.5102 [cm^3 STP/g],        372.4179 [cm^3 STP/cm^3]
	excess adsorption:   144.37500 [mol/uc],        12.5150 [mol/kg],            499.9480 [mg/g]
	                                               280.5102 [cm^3 STP/g],        372.4179 [cm^3 STP/cm^3]
----------------------------------------------------------------------------------------------------------------------------------------------------
Degrees of freedom: 3465 0 3465 0
Number of Framework-atoms:   4608
Number of Adsorbates:        1155 (1155 integer, 0 fractional, 0 reaction)
Number of Cations:              0 (0 integer, 0 fractional, 0 reaction

Current total potential energy:          -2443365.7434353465 [K]
	Current Host-Host energy:                     0.0000000000 [K]
	Current Host-Adsorbate energy:         -1977218.4671412394 [K]
	Current Host-Cation energy:                   0.0000000000 [K]
	Current Adsorbate-Adsorbate energy:     -466147.2762941951 [K]
	Current Cation-Cation energy:                 0.0000000000 [K]
	Current Adsorbate-Cation energy:              0.0000000000 [K]



[Init] Current cycle: 3500 out of 50000
========================================================================================================

Net charge: 0 (F: 0, A: 0, C: 0)
Current Box:  48.69000   0.00000   0.00000 [A]
               0.00000  48.69000   0.00000 [A]
               0.00000   0.00000  48.69000 [A]
Box-lengths:  48.69000  48.69000  48.69000 Box-angles:   90.00000  90.00000  90.00000 [degrees]
Volume: 115430.16691 [A^3]

Loadings per component:
----------------------------------------------------------------------------------------------------------------------------------------------------
Component 0 (argon), current number of integer/fractional/reaction molecules: 1155/0/0, density: 663.75392 [kg/m^3]
	absolute adsorption: 144.37500 [mol/uc],        12.5150 [mol/kg],            499.9480 [mg/g]
	                                               280.5102 [cm^3 STP/g],        372.4179 [cm^3 STP/cm^3]
	excess adsorption:   144.37500 [mol/uc],        12.5150 [mol/kg],            499.9480 [mg/g]
	                                               280.5102 [cm^3 STP/g],        372.4179 [cm^3 STP/cm^3]
----------------------------------------------------------------------------------------------------------------------------------------------------
Degrees of freedom: 3465 0 3465 0
Number of Framework-atoms:   4608
Number of Adsorbates:        1155 (1155 integer, 0 fractional, 0 reaction)
Number of Cations:              0 (0 integer, 0 fractional, 0 reaction

Current total potential energy:          -2441163.1574287536 [K]
	Current Host-Host energy:                     0.0000000000 [K]
	Current Host-Adsorbate energy:         -1975862.7982876762 [K]
	Current Host-Cation energy:                   0.0000000000 [K]
	Current Adsorbate-Adsorbate energy:     -465300.3591411705 [K]
	Current Cation-Cation energy:                 0.0000000000 [K]
	Current Adsorbate-Cation energy:              0.0000000000 [K]



[Init] Current cycle: 4000 out of 50000
========================================================================================================

Net charge: 0 (F: 0, A: 0, C: 0)
Current Box:  48.69000   0.00000   0.00000 [A]
               0.00000  48.69000   0.00000 [A]
               0.00000   0.00000  48.69000 [A]
Box-lengths:  48.69000  48.69000  48.69000 Box-angles:   90.00000  90.00000  90.00000 [degrees]
Volume: 115430.16691 [A^3]

Loadings per component:
----------------------------------------------------------------------------------------------------------------------------------------------------
Component 0 (argon), current number of integer/fractional/reaction molecules: 1159/0/0, density: 666.05263 [kg/m^3]
	absolute adsorption: 144.87500 [mol/uc],        12.5583 [mol/kg],            501.6794 [mg/g]
	                                               281.4817 [cm^3 STP/g],        373.7077 [cm^3 STP/cm^3]
	excess adsorption:   144.87500 [mol/uc],        12.5583 [mol/kg],            501.6794 [mg/g]
	                                               281.4817 [cm^3 STP/g],        373.7077 [cm^3 STP/cm^3]
----------------------------------------------------------------------------------------------------------------------------------------------------
Degrees of freedom: 3477 0 3477 0
Number of Framework-atoms:   4608
Number of Adsorbates:        1159 (1159 integer, 0 fractional, 0 reaction)
Number of Cations:              0 (0 integer, 0 fractional, 0 reaction

Current total potential energy:          -2451195.3204305624 [K]
	Current Host-Host energy:                     0.0000000000 [K]
	Current Host-Adsorbate energy:         -1983926.2389313430 [K]
	Current Host-Cation energy:                   0.0000000000 [K]
	Current Adsorbate-Adsorbate energy:     -467269.0814992937 [K]
	Current Cation-Cation energy:                 0.0000000000 [K]
	Current Adsorbate-Cation energy:              0.0000000000 [K]



[Init] Current cycle: 4500 out of 50000
========================================================================================================

Net charge: 0 (F: 0, A: 0, C: 0)
Current Box:  48.69000   0.00000   0.00000 [A]
               0.00000  48.69000   0.00000 [A]
               0.00000   0.00000  48.69000 [A]
Box-lengths:  48.69000  48.69000  48.69000 Box-angles:   90.00000  90.00000  90.00000 [degrees]
Volume: 115430.16691 [A^3]

Loadings per component:
----------------------------------------------------------------------------------------------------------------------------------------------------
Component 0 (argon), current number of integer/fractional/reaction molecules: 1162/0/0, density: 667.77667 [kg/m^3]
	absolute adsorption: 145.25000 [mol/uc],        12.5908 [mol/kg],            502.9780 [mg/g]
	                                               282.2103 [cm^3 STP/g],        374.6750 [cm^3 STP/cm^3]
	excess adsorption:   145.25000 [mol/uc],        12.5908 [mol/kg],            502.9780 [mg/g]
	                                               282.2103 [cm^3 STP/g],        374.6750 [cm^3 STP/cm^3]
----------------------------------------------------------------------------------------------------------------------------------------------------
Degrees of freedom: 3486 0 3486 0
Number of Framework-atoms:   4608
Number of Adsorbates:        1162 (1162 integer, 0 fractional, 0 reaction)
Number of Cations:              0 (0 integer, 0 fractional, 0 reaction

Current total potential energy:          -2455405.0121841514 [K]
	Current Host-Host energy:                     0.0000000000 [K]
	Current Host-Adsorbate energy:         -1983269.5220246040 [K]
	Current Host-Cation energy:                   0.0000000000 [K]
	Current Adsorbate-Adsorbate energy:     -472135.4901596496 [K]
	Current Cation-Cation energy:                 0.0000000000 [K]
	Current Adsorbate-Cation energy:              0.0000000000 [K]



[Init] Current cycle: 5000 out of 50000
========================================================================================================

Net charge: 0 (F: 0, A: 0, C: 0)
Current Box:  48.69000   0.00000   0.00000 [A]
               0.00000  48.69000   0.00000 [A]
               0.00000   0.00000  48.69000 [A]
Box-lengths:  48.69000  48.69000  48.69000 Box-angles:   90.00000  90.00000  90.00000 [degrees]
Volume: 115430.16691 [A^3]

Loadings per component:
----------------------------------------------------------------------------------------------------------------------------------------------------
Component 0 (argon), current number of integer/fractional/reaction molecules: 1163/0/0, density: 668.35134 [kg/m^3]
	absolute adsorption: 145.37500 [mol/uc],        12.6017 [mol/kg],            503.4108 [mg/g]
	                                               282.4531 [cm^3 STP/g],        374.9974 [cm^3 STP/cm^3]
	excess adsorption:   145.37500 [mol/uc],        12.6017 [mol/kg],            503.4108 [mg/g]
	                                               282.4531 [cm^3 STP/g],        374.9974 [cm^3 STP/cm^3]
----------------------------------------------------------------------------------------------------------------------------------------------------
Degrees of freedom: 3489 0 3489 0
Number of Framework-atoms:   4608
Number of Adsorbates:        1163 (1163 integer, 0 fractional, 0 reaction)
Number of Cations:              0 (0 integer, 0 fractional, 0 reaction

Current total potential energy:          -2454111.3911704370 [K]
	Current Host-Host energy:                     0.0000000000 [K]
	Current Host-Adsorbate energy:         -1986547.0054969296 [K]
	Current Host-Cation energy:                   0.0000000000 [K]
	Current Adsorbate-Adsorbate energy:     -467564.3856735907 [K]
	Current Cation-Cation energy:                 0.0000000000 [K]
	Current Adsorbate-Cation energy:              0.0000000000 [K]



[Init] Current cycle: 5500 out of 50000
========================================================================================================

Net charge: 0 (F: 0, A: 0, C: 0)
Current Box:  48.69000   0.00000   0.00000 [A]
               0.00000  48.69000   0.00000 [A]
               0.00000   0.00000  48.69000 [A]
Box-lengths:  48.69000  48.69000  48.69000 Box-angles:   90.00000  90.00000  90.00000 [degrees]
Volume: 115430.16691 [A^3]

Loadings per component:
----------------------------------------------------------------------------------------------------------------------------------------------------
Component 0 (argon), current number of integer/fractional/reaction molecules: 1164/0/0, density: 668.92602 [kg/m^3]
	absolute adsorption: 145.50000 [mol/uc],        12.6125 [mol/kg],            503.8437 [mg/g]
	                                               282.6960 [cm^3 STP/g],        375.3199 [cm^3 STP/cm^3]
	excess adsorption:   145.50000 [mol/uc],        12.6125 [mol/kg],            503.8437 [mg/g]
	                                               282.6960 [cm^3 STP/g],        375.3199 [cm^3 STP/cm^3]
----------------------------------------------------------------------------------------------------------------------------------------------------
Degrees of freedom: 3492 0 3492 0
Number of Framework-atoms:   4608
Number of Adsorbates:        1164 (1164 integer, 0 fractional, 0 reaction)
Number of Cations:              0 (0 integer, 0 fractional, 0 reaction

Current total potential energy:          -2459605.5717928438 [K]
	Current Host-Host energy:                     0.0000000000 [K]
	Current Host-Adsorbate energy:         -1987752.4993033807 [K]
	Current Host-Cation energy:                   0.0000000000 [K]
	Current Adsorbate-Adsorbate energy:     -471853.0724895769 [K]
	Current Cation-Cation energy:                 0.0000000000 [K]
	Current Adsorbate-Cation energy:              0.0000000000 [K]



[Init] Current cycle: 6000 out of 50000
========================================================================================================

Net charge: 0 (F: 0, A: 0, C: 0)
Current Box:  48.69000   0.00000   0.00000 [A]
               0.00000  48.69000   0.00000 [A]
               0.00000   0.00000  48.69000 [A]
Box-lengths:  48.69000  48.69000  48.69000 Box-angles:   90.00000  90.00000  90.00000 [degrees]
Volume: 115430.16691 [A^3]

Loadings per component:
----------------------------------------------------------------------------------------------------------------------------------------------------
Component 0 (argon), current number of integer/fractional/reaction molecules: 1168/0/0, density: 671.22474 [kg/m^3]
	absolute adsorption: 146.00000 [mol/uc],        12.6558 [mol/kg],            505.5751 [mg/g]
	                                               283.6675 [cm^3 STP/g],        376.6096 [cm^3 STP/cm^3]
	excess adsorption:   146.00000 [mol/uc],        12.6558 [mol/kg],            505.5751 [mg/g]
	                                               283.6675 [cm^3 STP/g],        376.6096 [cm^3 STP/cm^3]
----------------------------------------------------------------------------------------------------------------------------------------------------
Degrees of freedom: 3504 0 3504 0
Number of Framework-atoms:   4608
Number of Adsorbates:        1168 (1168 integer, 0 fractional, 0 reaction)
Number of Cations:              0 (0 integer, 0 fractional, 0 reaction

Current total potential energy:          -2472311.7421021783 [K]
	Current Host-Host energy:                     0.0000000000 [K]
	Current Host-Adsorbate energy:         -1995524.3908821100 [K]
	Current Host-Cation energy:                   0.0000000000 [K]
	Current Adsorbate-Adsorbate energy:     -476787.3512201447 [K]
	Current Cation-Cation energy:                 0.0000000000 [K]
	Current Adsorbate-Cation energy:              0.0000000000 [K]



[Init] Current cycle: 6500 out of 50000
========================================================================================================

Net charge: 0 (F: 0, A: 0, C: 0)
Current Box:  48.69000   0.00000   0.00000 [A]
               0.00000  48.69000   0.00000 [A]
               0.00000   0.00000  48.69000 [A]
Box-lengths:  48.69000  48.69000  48.69000 Box-angles:   90.00000  90.00000  90.00000 [degrees]
Volume: 115430.16691 [A^3]

Loadings per component:
----------------------------------------------------------------------------------------------------------------------------------------------------
Component 0 (argon), current number of integer/fractional/reaction molecules: 1169/0/0, density: 671.79942 [kg/m^3]
	absolute adsorption: 146.12500 [mol/uc],        12.6667 [mol/kg],            506.0079 [mg/g]
	                                               283.9103 [cm^3 STP/g],        376.9321 [cm^3 STP/cm^3]
	excess adsorption:   146.12500 [mol/uc],        12.6667 [mol/kg],            506.0079 [mg/g]
	                                               283.9103 [cm^3 STP/g],        376.9321 [cm^3 STP/cm^3]
----------------------------------------------------------------------------------------------------------------------------------------------------
Degrees of freedom: 3507 0 3507 0
Number of Framework-atoms:   4608
Number of Adsorbates:        1169 (1169 integer, 0 fractional, 0 reaction)
Number of Cations:              0 (0 integer, 0 fractional, 0 reaction

Current total potential energy:          -2469825.6687630164 [K]
	Current Host-Host energy:                     0.0000000000 [K]
	Current Host-Adsorbate energy:         -1992741.1519991902 [K]
	Current Host-Cation energy:                   0.0000000000 [K]
	Current Adsorbate-Adsorbate energy:     -477084.5167639197 [K]
	Current Cation-Cation energy:                 0.0000000000 [K]
	Current Adsorbate-Cation energy:              0.0000000000 [K]



[Init] Current cycle: 7000 out of 50000
========================================================================================================

Net charge: 0 (F: 0, A: 0, C: 0)
Current Box:  48.69000   0.00000   0.00000 [A]
               0.00000  48.69000   0.00000 [A]
               0.00000   0.00000  48.69000 [A]
Box-lengths:  48.69000  48.69000  48.69000 Box-angles:   90.00000  90.00000  90.00000 [degrees]
Volume: 115430.16691 [A^3]

Loadings per component:
----------------------------------------------------------------------------------------------------------------------------------------------------
Component 0 (argon), current number of integer/fractional/reaction molecules: 1172/0/0, density: 673.52345 [kg/m^3]
	absolute adsorption: 146.50000 [mol/uc],        12.6992 [mol/kg],            507.3065 [mg/g]
	                                               284.6389 [cm^3 STP/g],        377.8994 [cm^3 STP/cm^3]
	excess adsorption:   146.50000 [mol/uc],        12.6992 [mol/kg],            507.3065 [mg/g]
	                                               284.6389 [cm^3 STP/g],        377.8994 [cm^3 STP/cm^3]
----------------------------------------------------------------------------------------------------------------------------------------------------
Degrees of freedom: 3516 0 3516 0
Number of Framework-atoms:   4608
Number of Adsorbates:        1172 (1172 integer, 0 fractional, 0 reaction)
Number of Cations:              0 (0 integer, 0 fractional, 0 reaction

Current total potential energy:          -2470721.3874279964 [K]
	Current Host-Host energy:                     0.0000000000 [K]
	Current Host-Adsorbate energy:         -1996373.9245432881 [K]
	Current Host-Cation energy:                   0.0000000000 [K]
	Current Adsorbate-Adsorbate energy:     -474347.4628848016 [K]
	Current Cation-Cation energy:                 0.0000000000 [K]
	Current Adsorbate-Cation energy:              0.0000000000 [K]



[Init] Current cycle: 7500 out of 50000
========================================================================================================

Net charge: 0 (F: 0, A: 0, C: 0)
Current Box:  48.69000   0.00000   0.00000 [A]
               0.00000  48.69000   0.00000 [A]
               0.00000   0.00000  48.69000 [A]
Box-lengths:  48.69000  48.69000  48.69000 Box-angles:   90.00000  90.00000  90.00000 [degrees]
Volume: 115430.16691 [A^3]

Loadings per component:
----------------------------------------------------------------------------------------------------------------------------------------------------
Component 0 (argon), current number of integer/fractional/reaction molecules: 1171/0/0, density: 672.94877 [kg/m^3]
	absolute adsorption: 146.37500 [mol/uc],        12.6883 [mol/kg],            506.8736 [mg/g]
	                                               284.3961 [cm^3 STP/g],        377.5770 [cm^3 STP/cm^3]
	excess adsorption:   146.37500 [mol/uc],        12.6883 [mol/kg],            506.8736 [mg/g]
	                                               284.3961 [cm^3 STP/g],        377.5770 [cm^3 STP/cm^3]
----------------------------------------------------------------------------------------------------------------------------------------------------
Degrees of freedom: 3513 0 3513 0
Number of Framework-atoms:   4608
Number of Adsorbates:        1171 (1171 integer, 0 fractional, 0 reaction)
Number of Cations:              0 (0 integer, 0 fractional, 0 reaction

Current total potential energy:          -2470027.9899486559 [K]
	Current Host-Host energy:                     0.0000000000 [K]
	Current Host-Adsorbate energy:         -1994365.4949472724 [K]
	Current Host-Cation energy:                   0.0000000000 [K]
	Current Adsorbate-Adsorbate energy:     -475662.4950014856 [K]
	Current Cation-Cation energy:                 0.0000000000 [K]
	Current Adsorbate-Cation energy:              0.0000000000 [K]



[Init] Current cycle: 8000 out of 50000
========================================================================================================

Net charge: 0 (F: 0, A: 0, C: 0)
Current Box:  48.69000   0.00000   0.00000 [A]
               0.00000  48.69000   0.00000 [A]
               0.00000   0.00000  48.69000 [A]
Box-lengths:  48.69000  48.69000  48.69000 Box-angles:   90.00000  90.00000  90.00000 [degrees]
Volume: 115430.16691 [A^3]

Loadings per component:
----------------------------------------------------------------------------------------------------------------------------------------------------
Component 0 (argon), current number of integer/fractional/reaction molecules: 1172/0/0, density: 673.52345 [kg/m^3]
	absolute adsorption: 146.50000 [mol/uc],        12.6992 [mol/kg],            507.3065 [mg/g]
	                                               284.6389 [cm^3 STP/g],        377.8994 [cm^3 STP/cm^3]
	excess adsorption:   146.50000 [mol/uc],        12.6992 [mol/kg],            507.3065 [mg/g]
	                                               284.6389 [cm^3 STP/g],        377.8994 [cm^3 STP/cm^3]
----------------------------------------------------------------------------------------------------------------------------------------------------
Degrees of freedom: 3516 0 3516 0
Number of Framework-atoms:   4608
Number of Adsorbates:        1172 (1172 integer, 0 fractional, 0 reaction)
Number of Cations:              0 (0 integer, 0 fractional, 0 reaction

Current total potential energy:          -2477869.2954183985 [K]
	Current Host-Host energy:                     0.0000000000 [K]
	Current Host-Adsorbate energy:         -2002054.8415241020 [K]
	Current Host-Cation energy:                   0.0000000000 [K]
	Current Adsorbate-Adsorbate energy:     -475814.4538944343 [K]
	Current Cation-Cation energy:                 0.0000000000 [K]
	Current Adsorbate-Cation energy:              0.0000000000 [K]



[Init] Current cycle: 8500 out of 50000
========================================================================================================

Net charge: 0 (F: 0, A: 0, C: 0)
Current Box:  48.69000   0.00000   0.00000 [A]
               0.00000  48.69000   0.00000 [A]
               0.00000   0.00000  48.69000 [A]
Box-lengths:  48.69000  48.69000  48.69000 Box-angles:   90.00000  90.00000  90.00000 [degrees]
Volume: 115430.16691 [A^3]

Loadings per component:
----------------------------------------------------------------------------------------------------------------------------------------------------
Component 0 (argon), current number of integer/fractional/reaction molecules: 1174/0/0, density: 674.67281 [kg/m^3]
	absolute adsorption: 146.75000 [mol/uc],        12.7208 [mol/kg],            508.1722 [mg/g]
	                                               285.1247 [cm^3 STP/g],        378.5443 [cm^3 STP/cm^3]
	excess adsorption:   146.75000 [mol/uc],        12.7208 [mol/kg],            508.1722 [mg/g]
	                                               285.1247 [cm^3 STP/g],        378.5443 [cm^3 STP/cm^3]
----------------------------------------------------------------------------------------------------------------------------------------------------
Degrees of freedom: 3522 0 3522 0
Number of Framework-atoms:   4608
Number of Adsorbates:        1174 (1174 integer, 0 fractional, 0 reaction)
Number of Cations:              0 (0 integer, 0 fractional, 0 reaction

Current total potential energy:          -2475770.6595101883 [K]
	Current Host-Host energy:                     0.0000000000 [K]
	Current Host-Adsorbate energy:         -2004698.0264023158 [K]
	Current Host-Cation energy:                   0.0000000000 [K]
	Current Adsorbate-Adsorbate energy:     -471072.6331079670 [K]
	Current Cation-Cation energy:                 0.0000000000 [K]
	Current Adsorbate-Cation energy:              0.0000000000 [K]



[Init] Current cycle: 9000 out of 50000
========================================================================================================

Net charge: 0 (F: 0, A: 0, C: 0)
Current Box:  48.69000   0.00000   0.00000 [A]
               0.00000  48.69000   0.00000 [A]
               0.00000   0.00000  48.69000 [A]
Box-lengths:  48.69000  48.69000  48.69000 Box-angles:   90.00000  90.00000  90.00000 [degrees]
Volume: 115430.16691 [A^3]

Loadings per component:
----------------------------------------------------------------------------------------------------------------------------------------------------
Component 0 (argon), current number of integer/fractional/reaction molecules: 1177/0/0, density: 676.39685 [kg/m^3]
	absolute adsorption: 147.12500 [mol/uc],        12.7533 [mol/kg],            509.4708 [mg/g]
	                                               285.8533 [cm^3 STP/g],        379.5116 [cm^3 STP/cm^3]
	excess adsorption:   147.12500 [mol/uc],        12.7533 [mol/kg],            509.4708 [mg/g]
	                                               285.8533 [cm^3 STP/g],        379.5116 [cm^3 STP/cm^3]
----------------------------------------------------------------------------------------------------------------------------------------------------
Degrees of freedom: 3531 0 3531 0
Number of Framework-atoms:   4608
Number of Adsorbates:        1177 (1177 integer, 0 fractional, 0 reaction)
Number of Cations:              0 (0 integer, 0 fractional, 0 reaction

Current total potential energy:          -2481753.5684913965 [K]
	Current Host-Host energy:                     0.0000000000 [K]
	Current Host-Adsorbate energy:         -2010941.1587648697 [K]
	Current Host-Cation energy:                   0.0000000000 [K]
	Current Adsorbate-Adsorbate energy:     -470812.4097266941 [K]
	Current Cation-Cation energy:                 0.0000000000 [K]
	Current Adsorbate-Cation energy:              0.0000000000 [K]



[Init] Current cycle: 9500 out of 50000
========================================================================================================

Net charge: 0 (F: 0, A: 0, C: 0)
Current Box:  48.69000   0.00000   0.00000 [A]
               0.00000  48.69000   0.00000 [A]
               0.00000   0.00000  48.69000 [A]
Box-lengths:  48.69000  48.69000  48.69000 Box-angles:   90.00000  90.00000  90.00000 [degrees]
Volume: 115430.16691 [A^3]

Loadings per component:
----------------------------------------------------------------------------------------------------------------------------------------------------
Component 0 (argon), current number of integer/fractional/reaction molecules: 1178/0/0, density: 676.97153 [kg/m^3]
	absolute adsorption: 147.25000 [mol/uc],        12.7642 [mol/kg],            509.9036 [mg/g]
	                                               286.0961 [cm^3 STP/g],        379.8340 [cm^3 STP/cm^3]
	excess adsorption:   147.25000 [mol/uc],        12.7642 [mol/kg],            509.9036 [mg/g]
	                                               286.0961 [cm^3 STP/g],        379.8340 [cm^3 STP/cm^3]
----------------------------------------------------------------------------------------------------------------------------------------------------
Degrees of freedom: 3534 0 3534 0
Number of Framework-atoms:   4608
Number of Adsorbates:        1178 (1178 integer, 0 fractional, 0 reaction)
Number of Cations:              0 (0 integer, 0 fractional, 0 reaction

Current total potential energy:          -2484485.4496915299 [K]
	Current Host-Host energy:                     0.0000000000 [K]
	Current Host-Adsorbate energy:         -2005508.2208656564 [K]
	Current Host-Cation energy:                   0.0000000000 [K]
	Current Adsorbate-Adsorbate energy:     -478977.2288260394 [K]
	Current Cation-Cation energy:                 0.0000000000 [K]
	Current Adsorbate-Cation energy:              0.0000000000 [K]



[Init] Current cycle: 10000 out of 50000
========================================================================================================

Net charge: 0 (F: 0, A: 0, C: 0)
Current Box:  48.69000   0.00000   0.00000 [A]
               0.00000  48.69000   0.00000 [A]
               0.00000   0.00000  48.69000 [A]
Box-lengths:  48.69000  48.69000  48.69000 Box-angles:   90.00000  90.00000  90.00000 [degrees]
Volume: 115430.16691 [A^3]

Loadings per component:
----------------------------------------------------------------------------------------------------------------------------------------------------
Component 0 (argon), current number of integer/fractional/reaction molecules: 1178/0/0, density: 676.97153 [kg/m^3]
	absolute adsorption: 147.25000 [mol/uc],        12.7642 [mol/kg],            509.9036 [mg/g]
	                                               286.0961 [cm^3 STP/g],        379.8340 [cm^3 STP/cm^3]
	excess adsorption:   147.25000 [mol/uc],        12.7642 [mol/kg],            509.9036 [mg/g]
	                                               286.0961 [cm^3 STP/g],        379.8340 [cm^3 STP/cm^3]
----------------------------------------------------------------------------------------------------------------------------------------------------
Degrees of freedom: 3534 0 3534 0
Number of Framework-atoms:   4608
Number of Adsorbates:        1178 (1178 integer, 0 fractional, 0 reaction)
Number of Cations:              0 (0 integer, 0 fractional, 0 reaction

Current total potential energy:          -2484911.0005210722 [K]
	Current Host-Host energy:                     0.0000000000 [K]
	Current Host-Adsorbate energy:         -2006785.4608889346 [K]
	Current Host-Cation energy:                   0.0000000000 [K]
	Current Adsorbate-Adsorbate energy:     -478125.5396322989 [K]
	Current Cation-Cation energy:                 0.0000000000 [K]
	Current Adsorbate-Cation energy:              0.0000000000 [K]



[Init] Current cycle: 10500 out of 50000
[...]
	Block[ 1]            0.00000 [K]
	Block[ 2]            0.00000 [K]
	Block[ 3]            0.00000 [K]
	Block[ 4]            0.00000 [K]
	------------------------------------------------------------------------------
	Average              0.00000 [K] +/-            0.00000 [K]

Average Cation Bend angle inversion energy:
===========================================
	Block[ 0]            0.00000 [K]
	Block[ 1]            0.00000 [K]
	Block[ 2]            0.00000 [K]
	Block[ 3]            0.00000 [K]
	Block[ 4]            0.00000 [K]
	------------------------------------------------------------------------------
	Average              0.00000 [K] +/-            0.00000 [K]

Average Cation Torsion energy:
==============================
	Block[ 0]            0.00000 [K]
	Block[ 1]            0.00000 [K]
	Block[ 2]            0.00000 [K]
	Block[ 3]            0.00000 [K]
	Block[ 4]            0.00000 [K]
	------------------------------------------------------------------------------
	Average              0.00000 [K] +/-            0.00000 [K]

Average Cation Improper Torsion energy:
=======================================
	Block[ 0]            0.00000 [K]
	Block[ 1]            0.00000 [K]
	Block[ 2]            0.00000 [K]
	Block[ 3]            0.00000 [K]
	Block[ 4]            0.00000 [K]
	------------------------------------------------------------------------------
	Average              0.00000 [K] +/-            0.00000 [K]

Average Cation Bond-Bond cross term energy:
=================================================
	Block[ 0]            0.00000 [K]
	Block[ 1]            0.00000 [K]
	Block[ 2]            0.00000 [K]
	Block[ 3]            0.00000 [K]
	Block[ 4]            0.00000 [K]
	------------------------------------------------------------------------------
	Average              0.00000 [K] +/-            0.00000 [K]

Average Cation Bend-Bend cross term energy:
===========================================
	Block[ 0]            0.00000 [K]
	Block[ 1]            0.00000 [K]
	Block[ 2]            0.00000 [K]
	Block[ 3]            0.00000 [K]
	Block[ 4]            0.00000 [K]
	------------------------------------------------------------------------------
	Average              0.00000 [K] +/-            0.00000 [K]

Average Cation Bond-Bend cross term energy:
==============================================
	Block[ 0]            0.00000 [K]
	Block[ 1]            0.00000 [K]
	Block[ 2]            0.00000 [K]
	Block[ 3]            0.00000 [K]
	Block[ 4]            0.00000 [K]
	------------------------------------------------------------------------------
	Average              0.00000 [K] +/-            0.00000 [K]

Average Cation Bond-Torsion cross term energy:
==============================================
	Block[ 0]            0.00000 [K]
	Block[ 1]            0.00000 [K]
	Block[ 2]            0.00000 [K]
	Block[ 3]            0.00000 [K]
	Block[ 4]            0.00000 [K]
	------------------------------------------------------------------------------
	Average              0.00000 [K] +/-            0.00000 [K]

Average Cation Bend-Torsion cross term energy:
==============================================
	Block[ 0]            0.00000 [K]
	Block[ 1]            0.00000 [K]
	Block[ 2]            0.00000 [K]
	Block[ 3]            0.00000 [K]
	Block[ 4]            0.00000 [K]
	------------------------------------------------------------------------------
	Average              0.00000 [K] +/-            0.00000 [K]

Average Cation Intra Van der Waals energy:
==========================================
	Block[ 0]            0.00000 [K]
	Block[ 1]            0.00000 [K]
	Block[ 2]            0.00000 [K]
	Block[ 3]            0.00000 [K]
	Block[ 4]            0.00000 [K]
	------------------------------------------------------------------------------
	Average              0.00000 [K] +/-            0.00000 [K]

Average Cation Intra charge-charge Coulomb energy:
====================================
	Block[ 0]            0.00000 [K]
	Block[ 1]            0.00000 [K]
	Block[ 2]            0.00000 [K]
	Block[ 3]            0.00000 [K]
	Block[ 4]            0.00000 [K]
	------------------------------------------------------------------------------
	Average              0.00000 [K] +/-            0.00000 [K]

Average Cation Intra charge-bonddipole Coulomb energy:
====================================
	Block[ 0]            0.00000 [K]
	Block[ 1]            0.00000 [K]
	Block[ 2]            0.00000 [K]
	Block[ 3]            0.00000 [K]
	Block[ 4]            0.00000 [K]
	------------------------------------------------------------------------------
	Average              0.00000 [K] +/-            0.00000 [K]

Average Cation Intra bonddipole-bonddipole Coulomb energy:
====================================
	Block[ 0]            0.00000 [K]
	Block[ 1]            0.00000 [K]
	Block[ 2]            0.00000 [K]
	Block[ 3]            0.00000 [K]
	Block[ 4]            0.00000 [K]
	------------------------------------------------------------------------------
	Average              0.00000 [K] +/-            0.00000 [K]

Average Host-Host energy:
=========================
	Block[ 0] 0.00000            Van der Waals: 0.00000            Coulomb: 0.00000            [K]
	Block[ 1] 0.00000            Van der Waals: 0.00000            Coulomb: 0.00000            [K]
	Block[ 2] 0.00000            Van der Waals: 0.00000            Coulomb: 0.00000            [K]
	Block[ 3] 0.00000            Van der Waals: 0.00000            Coulomb: 0.00000            [K]
	Block[ 4] 0.00000            Van der Waals: 0.00000            Coulomb: 0.00000            [K]
	------------------------------------------------------------------------------
	Average   0.00000            Van der Waals: 0.000000           Coulomb: 0.00000            [K]
	      +/- 0.00000                       +/- 0.000000                +/- 0.00000            [K]

Average Adsorbate-Adsorbate energy:
===================================
	Block[ 0] -523576.57124      Van der Waals: -523576.57124      Coulomb: 0.00000            [K]
	Block[ 1] -535685.34480      Van der Waals: -535685.34480      Coulomb: 0.00000            [K]
	Block[ 2] -547053.39216      Van der Waals: -547053.39216      Coulomb: 0.00000            [K]
	Block[ 3] -549611.42908      Van der Waals: -549611.42908      Coulomb: 0.00000            [K]
	Block[ 4] -556072.37027      Van der Waals: -556072.37027      Coulomb: 0.00000            [K]
	------------------------------------------------------------------------------
	Average   -542399.82151      Van der Waals: -542399.821512     Coulomb: 0.00000            [K]
	      +/- 22978.26001                   +/- 22978.260011            +/- 0.00000            [K]

Average Cation-Cation energy:
=============================
	Block[ 0] 0.00000            Van der Waals: 0.00000            Coulomb: 0.00000            [K]
	Block[ 1] 0.00000            Van der Waals: 0.00000            Coulomb: 0.00000            [K]
	Block[ 2] 0.00000            Van der Waals: 0.00000            Coulomb: 0.00000            [K]
	Block[ 3] 0.00000            Van der Waals: 0.00000            Coulomb: 0.00000            [K]
	Block[ 4] 0.00000            Van der Waals: 0.00000            Coulomb: 0.00000            [K]
	------------------------------------------------------------------------------
	Average   0.00000            Van der Waals: 0.000000           Coulomb: 0.00000            [K]
	      +/- 0.00000                       +/- 0.000000                +/- 0.00000            [K]

Average Host-Adsorbate energy:
==============================
	Block[ 0] -2090910.97621     Van der Waals: -2090910.97621     Coulomb: 0.00000            [K]
	Block[ 1] -2105088.11426     Van der Waals: -2105088.11426     Coulomb: 0.00000            [K]
	Block[ 2] -2116632.01729     Van der Waals: -2116632.01729     Coulomb: 0.00000            [K]
	Block[ 3] -2119066.96463     Van der Waals: -2119066.96463     Coulomb: 0.00000            [K]
	Block[ 4] -2125341.50760     Van der Waals: -2125341.50760     Coulomb: 0.00000            [K]
	------------------------------------------------------------------------------
	Average   -2111407.91600     Van der Waals: -2111407.915996    Coulomb: 0.00000            [K]
	      +/- 24333.70781                   +/- 24333.707815            +/- 0.00000            [K]

Average Host-Cation energy:
===========================
	Block[ 0] 0.00000            Van der Waals: 0.00000            Coulomb: 0.00000            [K]
	Block[ 1] 0.00000            Van der Waals: 0.00000            Coulomb: 0.00000            [K]
	Block[ 2] 0.00000            Van der Waals: 0.00000            Coulomb: 0.00000            [K]
	Block[ 3] 0.00000            Van der Waals: 0.00000            Coulomb: 0.00000            [K]
	Block[ 4] 0.00000            Van der Waals: 0.00000            Coulomb: 0.00000            [K]
	------------------------------------------------------------------------------
	Average   0.00000            Van der Waals: 0.000000           Coulomb: 0.00000            [K]
	      +/- 0.00000                       +/- 0.000000                +/- 0.00000            [K]

Average Adsorbate-Cation energy:
================================
	Block[ 0] 0.00000            Van der Waals: 0.00000            Coulomb: 0.00000            [K]
	Block[ 1] 0.00000            Van der Waals: 0.00000            Coulomb: 0.00000            [K]
	Block[ 2] 0.00000            Van der Waals: 0.00000            Coulomb: 0.00000            [K]
	Block[ 3] 0.00000            Van der Waals: 0.00000            Coulomb: 0.00000            [K]
	Block[ 4] 0.00000            Van der Waals: 0.00000            Coulomb: 0.00000            [K]
	------------------------------------------------------------------------------
	Average   0.00000            Van der Waals: 0.000000           Coulomb: 0.00000            [K]
	      +/- 0.00000                       +/- 0.000000                +/- 0.00000            [K]

Host polarization energy:
=======================
	Block[ 0]            0.00000 [K]
	Block[ 1]            0.00000 [K]
	Block[ 2]            0.00000 [K]
	Block[ 3]            0.00000 [K]
	Block[ 4]            0.00000 [K]
	------------------------------------------------------------------------------
	Average              0.00000 [K] +/-            0.00000 [K]

Adsorbate polarization energy:
=======================
	Block[ 0]            0.00000 [K]
	Block[ 1]            0.00000 [K]
	Block[ 2]            0.00000 [K]
	Block[ 3]            0.00000 [K]
	Block[ 4]            0.00000 [K]
	------------------------------------------------------------------------------
	Average              0.00000 [K] +/-            0.00000 [K]

Cation polarization energy:
=======================
	Block[ 0]            0.00000 [K]
	Block[ 1]            0.00000 [K]
	Block[ 2]            0.00000 [K]
	Block[ 3]            0.00000 [K]
	Block[ 4]            0.00000 [K]
	------------------------------------------------------------------------------
	Average              0.00000 [K] +/-            0.00000 [K]

Host back-polarization energy:
=======================
	Block[ 0]            0.00000 [K]
	Block[ 1]            0.00000 [K]
	Block[ 2]            0.00000 [K]
	Block[ 3]            0.00000 [K]
	Block[ 4]            0.00000 [K]
	------------------------------------------------------------------------------
	Average              0.00000 [K] +/-            0.00000 [K]

Adsorbate back-polarization energy:
=======================
	Block[ 0]            0.00000 [K]
	Block[ 1]            0.00000 [K]
	Block[ 2]            0.00000 [K]
	Block[ 3]            0.00000 [K]
	Block[ 4]            0.00000 [K]
	------------------------------------------------------------------------------
	Average              0.00000 [K] +/-            0.00000 [K]

Cation back-polarization energy:
=======================
	Block[ 0]            0.00000 [K]
	Block[ 1]            0.00000 [K]
	Block[ 2]            0.00000 [K]
	Block[ 3]            0.00000 [K]
	Block[ 4]            0.00000 [K]
	------------------------------------------------------------------------------
	Average              0.00000 [K] +/-            0.00000 [K]

Tail-correction energy:
=======================
	Block[ 0]            0.00000 [K]
	Block[ 1]            0.00000 [K]
	Block[ 2]            0.00000 [K]
	Block[ 3]            0.00000 [K]
	Block[ 4]            0.00000 [K]
	------------------------------------------------------------------------------
	Average              0.00000 [K] +/-            0.00000 [K]

Distance-constraints energy:
=======================
	Block[ 0]            0.00000 [K]
	Block[ 1]            0.00000 [K]
	Block[ 2]            0.00000 [K]
	Block[ 3]            0.00000 [K]
	Block[ 4]            0.00000 [K]
	------------------------------------------------------------------------------
	Average              0.00000 [K] +/-            0.00000 [K]

Angle-constraints energy:
=======================
	Block[ 0]            0.00000 [K]
	Block[ 1]            0.00000 [K]
	Block[ 2]            0.00000 [K]
	Block[ 3]            0.00000 [K]
	Block[ 4]            0.00000 [K]
	------------------------------------------------------------------------------
	Average              0.00000 [K] +/-            0.00000 [K]

Dihedral-constraints energy:
=======================
	Block[ 0]            0.00000 [K]
	Block[ 1]            0.00000 [K]
	Block[ 2]            0.00000 [K]
	Block[ 3]            0.00000 [K]
	Block[ 4]            0.00000 [K]
	------------------------------------------------------------------------------
	Average              0.00000 [K] +/-            0.00000 [K]

Inversion-bend constraints energy:
=======================
	Block[ 0]            0.00000 [K]
	Block[ 1]            0.00000 [K]
	Block[ 2]            0.00000 [K]
	Block[ 3]            0.00000 [K]
	Block[ 4]            0.00000 [K]
	------------------------------------------------------------------------------
	Average              0.00000 [K] +/-            0.00000 [K]

Out-of-plane-distance constraints energy:
=======================
	Block[ 0]            0.00000 [K]
	Block[ 1]            0.00000 [K]
	Block[ 2]            0.00000 [K]
	Block[ 3]            0.00000 [K]
	Block[ 4]            0.00000 [K]
	------------------------------------------------------------------------------
	Average              0.00000 [K] +/-            0.00000 [K]

Exclusion-constraints energy:
=======================
	Block[ 0]            0.00000 [K]
	Block[ 1]            0.00000 [K]
	Block[ 2]            0.00000 [K]
	Block[ 3]            0.00000 [K]
	Block[ 4]            0.00000 [K]
	------------------------------------------------------------------------------
	Average              0.00000 [K] +/-            0.00000 [K]

Total energy:
=============
	Block[ 0]     -2614487.54745 [K]
	Block[ 1]     -2640773.45906 [K]
	Block[ 2]     -2663685.40946 [K]
	Block[ 3]     -2668678.39371 [K]
	Block[ 4]     -2681413.87787 [K]
	------------------------------------------------------------------------------
	Average       -2653807.73751 [K] +/-        47301.36206 [K]

Number of molecules:
====================

Component 0 [argon]
-------------------------------------------------------------
	Block[ 0] 1258.54550         [-]
	Block[ 1] 1273.92170         [-]
	Block[ 2] 1287.28730         [-]
	Block[ 3] 1290.07090         [-]
	Block[ 4] 1296.94810         [-]
	------------------------------------------------------------------------------
	Average                                   1281.3547000000 +/-      27.2738864470 [-]
	Average loading absolute [molecules/unit cell]      160.1693375000 +/-       3.4092358059 [-]
	Average loading absolute [mol/kg framework]         13.8840811906 +/-       0.2955253950 [-]
	Average loading absolute [milligram/gram framework]        554.6412754013 +/-      11.8056484782 [-]
	Average loading absolute [cm^3 (STP)/gr framework]        311.1974590833 +/-       6.6238990356 [-]
	Average loading absolute [cm^3 (STP)/cm^3 framework]        413.1596956568 +/-       8.7941852664 [-]

	Block[ 0] 1258.54550         [-]
	Block[ 1] 1273.92170         [-]
	Block[ 2] 1287.28730         [-]
	Block[ 3] 1290.07090         [-]
	Block[ 4] 1296.94810         [-]
	------------------------------------------------------------------------------
	Average                                   1281.3547000000 +/-      27.2738864470 [-]
	Average loading excess [molecules/unit cell]      160.1693375000 +/-       3.4092358059 [-]
	Average loading excess [mol/kg framework]         13.8840811906 +/-       0.2955253950 [-]
	Average loading excess [milligram/gram framework]        554.6412754013 +/-      11.8056484782 [-]
	Average loading excess [cm^3 (STP)/gr framework]        311.1974590833 +/-       6.6238990356 [-]
	Average loading excess [cm^3 (STP)/cm^3 framework]        413.1596956568 +/-       8.7941852664 [-]


Average Widom Rosenbluth factor:
================================
	Block[ 0] 0 [-]
	Block[ 1] 0 [-]
	Block[ 2] 0 [-]
	Block[ 3] 0 [-]
	Block[ 4] 0 [-]
	------------------------------------------------------------------------------
	[argon] Average Widom Rosenbluth-weight:   0 +/- 0.000000 [-]

Average Widom chemical potential:
=================================
	Block[ 0] 0 [-]
	Block[ 1] 0 [-]
	Block[ 2] 0 [-]
	Block[ 3] 0 [-]
	Block[ 4] 0 [-]
	------------------------------------------------------------------------------
	[argon] Average chemical potential:   0 +/- 0.000000 [K]

Average Widom Ideal-gas contribution:
=====================================
	Block[ 0] 0 [-]
	Block[ 1] 0 [-]
	Block[ 2] 0 [-]
	Block[ 3] 0 [-]
	Block[ 4] 0 [-]
	------------------------------------------------------------------------------
	[argon] Average Widom Ideal-gas chemical potential:   0 +/- 0.000000 [-]

Average Widom excess contribution:
==================================
	Block[ 0] 0 [-]
	Block[ 1] 0 [-]
	Block[ 2] 0 [-]
	Block[ 3] 0 [-]
	Block[ 4] 0 [-]
	------------------------------------------------------------------------------
	[argon] Average Widom excess chemical potential:   0 +/- 0.000000 [-]

Average Gibbs Widom Rosenbluth factor:
======================================
	Block[ 0] 0 [-]
	Block[ 1] 0 [-]
	Block[ 2] 0 [-]
	Block[ 3] 0 [-]
	Block[ 4] 0 [-]
	------------------------------------------------------------------------------
	[argon] Average Gibbs Widom Rosenbluth-weight:   0 +/- 0.000000 [-]

Average Gibbs Widom chemical potential:
=======================================
	Block[ 0] 0 [-]
	Block[ 1] 0 [-]
	Block[ 2] 0 [-]
	Block[ 3] 0 [-]
	Block[ 4] 0 [-]
	------------------------------------------------------------------------------
	[argon] Average Gibbs chemical potential:   0 +/- 0.000000 [K]

Average Gibbs Widom Ideal-gas contribution:
===========================================
	Block[ 0] 0 [-]
	Block[ 1] 0 [-]
	Block[ 2] 0 [-]
	Block[ 3] 0 [-]
	Block[ 4] 0 [-]
	------------------------------------------------------------------------------
	[argon] Average Gibbs Ideal-gas chemical potential:   0 +/- 0.000000 [-]

Average Gibbs Widom excess contribution:
===========================================
	Block[ 0] 0 [-]
	Block[ 1] 0 [-]
	Block[ 2] 0 [-]
	Block[ 3] 0 [-]
	Block[ 4] 0 [-]
	------------------------------------------------------------------------------
	[argon] Average Gibbs excess chemical potential:   0 +/- 0.000000 [-]

Average Henry coefficient:
==========================
	Block[ 0] 0 [mol/kg/Pa]
	Block[ 1] 0 [mol/kg/Pa]
	Block[ 2] 0 [mol/kg/Pa]
	Block[ 3] 0 [mol/kg/Pa]
	Block[ 4] 0 [mol/kg/Pa]
	------------------------------------------------------------------------------
	[argon] Average Henry coefficient:  0 +/- 0 [mol/kg/Pa]

Average adsorption energy <U_gh>_1-<U_h>_0 obtained from Widom-insertion:
(Note: the total heat of adsorption is dH=<U_gh>_1-<U_h>_0 - <U_g> - RT)
=========================================================================

Simulation finished,  0 warnings


Sun Jun 13 00:31:13 2021
Simulation finished on Sunday, June 13.
The end time was 12:31 AM.

