Compiler and run-time data
===========================================================================
RASPA 2.0.37
Compiled as a 64-bits application
Compiler: gcc Intel(R) C++ gcc 4.8.5 mode
Compile Date = May 12 2020, Compile Time = 18:40:55

Mon Jun  7 04:07:44 2021
Simulation started on Monday, June 07.
The start time was 04:07 AM.

Hostname:    The start time was 04:07 AM.
OS type:     The start time was 04:07 AM.
OS release:  The start time was 04:07 AM.
OS version:  The start time was 04:07 AM.

Simulation
===========================================================================
Dimensions: 3
Random number seed: 1623035264
RASPA directory set to: /mnt/iusers01/ceas01/m86397ah/Installed_software/RASPA
String appended to output-files: 
Number of cycles: 100000
Number of initializing cycles: 100000
Number of equilibration cycles: 0
Print every: 1000
Rectangular boundary condition applied
Timestep: 0.000500
	Degrees of freedom:                        0
	Translational Degrees of freedom:          0
	Rotational Degrees of freedom:             0
	Degrees of freedom Framework:              0


Mutual consistent basic set of units:
======================================
Unit of temperature: Kelvin
Unit of length:      1e-10 [m]
Unit of time:        1e-12 [s]
Unit of mass:        1.66054e-27 [kg]
Unit of charge:      1.60218e-19 [C/particle]

Derived units and their conversion factors:
===========================================
Unit of energy:              1.66054e-23 [J]
Unit of force:               1.66054e-13 [N]
Unit of pressure:            1.66054e+07 [Pa]
Unit of velocity:            100 [m/s]
Unit of acceleration:        1e-08 [m^2/s]
Unit of diffusion:           1e-08 [m^2/s]
Unit of dipole moment:       1.60218e-29 [C.m]
Unit of electric potential:  0.000103643 [V]
Unit of electric field:      1.03643e+06 [V]
Unit of polarizability:      1.54587e-35 [-]
Unit of Coulomb potential:   167101.0800066561  [K]
Unit of dielectric constant: 0.0000154587       [s^2 C^2/(kg m^3)]
Unit of wave vectors:        5.3088374589       [cm^1]
Boltzmann constant:          0.8314464919       [-]

Internal conversion factors:
===========================================
Energy to Kelvin:                                    1.2027242847
FH correction factor                                 2.0211930949
Heat capacity conversion factor:                    10.0000088723
From Debye to internal units:                        4.8032067991
Isothermal compressibility conversion factor:        0.0000000602

Energy conversion factors:
===========================================
From mdyne/A to kcal/mol/A^2:           143.933
From mdyne/A to kj/mol/A^2:             602.214
From mdyne/A to K/A^2:                  72429.7
From mdyne A/rad^2 to kcal/mol/deg^2:   0.0438444


Properties computed
===========================================================================
Movies: yes
	Movie snapshots are appended to file every 1000 cycles
Radial Distribution Function: no
Number of molecules GCMC histogram: no
Histogram of the molecule positions: no
Free energy profiles: no
Pore Size Distribution Function: no
End-to-end distance: no
Histogram of the energy of the system: no
Compute thermodynamic factors: no
Framework spacing histograms: no
Residence times histograms: no
Distance histograms: no
Bend Angle histograms: no
Dihedral angle histograms: no
Angle between planes histograms: no
Molecule properties: no
Infra-red spectra: no
Mean-squared displacement using modified order-N algorithm: no
Velocity-autocorrelation function modified order-N algorithm: no
Rotational velocity-autocorrelation function modified order-N algorithm: no
Molecular orientation-autocorrelation function modified order-N algorithm: no
Bond orientation-autocorrelation function modified order-N algorithm: no
Mean-squared displacement (conventional algorithm): no
Velocity-autocorrelation function (conventional algorithm): no
3D density grid for adsorbates: no
Compute cation an/or adsorption sites: no
dcTST snapshots: no
Compute pressure and stress: no


VTK
===========================================================================
VTK fractional-range position framework atoms: [-0.001000,1.001000] [-0.001000,1.001000] [-0.001000,1.001000]
VTK fractional-range position framework bonds: [-0.151000,1.151000] [-0.151000,1.151000] [-0.151000,1.151000]
VTK fractional-range com-position adsorbate molecules: [-0.101000,1.101000] [-0.101000,1.101000] [-0.101000,1.101000]
VTK fractional-range com-position cation molecules: [-0.101000,1.101000] [-0.101000,1.101000] [-0.101000,1.101000]
	3D free energy grid made for the full simulation-cell


Thermo/Baro-stat NHC parameters
===========================================================================
External temperature: 87 [K]
Beta: 0.0138244 [energy unit]
External Pressure: 101325 [Pa]


Thermostat chain-length: 3
Timescale parameter for thermostat: 0.150000 [ps]
Barostat chain-length:   3
Timescale parameter for barostat:   0.150000 [ps]

Number of Yoshida-Suzuki decomposition steps: 5
Number of respa steps: 5


Method and settings for electrostatics
===============================================================================
Dielectric constant of the medium : 1.000000
Charge from charge-equilibration: no
Ewald summation is used (exact solution of a periodic system)
Relative precision                : 1e-06
Alpha convergence parameter       : 0.265058
kvec (x,y,z)                      : 14 7 11


CFC-RXMC parameters
===========================================================================
Number of reactions: 0


Rattle parameters
===========================================================================
Distance constraint type: r^2-r^2_0
Bend angle constraint type: theta-theta_0
Dihedral angle constraint type: phi-phi_0
Inversion-bend angle constraint type: chi-chi_0
Out-of-plane distance constraint type: r-r_0


Spectra parameters
===========================================================================
Compute normal modes: no


Minimization parameters
===========================================================================
Generalized coordinates are: Cartesian center-of-mass, elements of the orientational matrix p1,p2,p3 and strain
Potential derivatives are evaluated: analytically
Translation of the system is removed from the generalized Hessian: no
Rotation of the system is removed from the generalized Hessian: no
Maximum step-length: 0.3
Convergence factor: 1
Maximum number of minimization steps: 10000
Use gradients in the line-minimizations: yes
RMS gradient tolerance: 1e-06
Maximum gradient tolerance: 1e-06

Distance constraints: 0
Angle constraints: 0
Dihedral constraints: 0

Improper dihedral constraints: 0

Inversion-bend constraints: 0

Out-of-plane constraints: 0

Harmonic distance constraints: 0
Harmonic angle constraints: 0
Harmonic dihedral constraints: 0

Dihedral mid-point measurements: 0

All framework atoms are fixed

Fixed adsorbate atoms:  
Fixed adsorbate groups (center-of-mass):  
Fixed adsorbate groups (orientation):  

Fixed cation atoms:  
Fixed cation groups (center-of-mass):  
Fixed cation groups (orientation):  


dcTST parameters
===========================================================================
Free energy profiles computed: no
Free energy profiles written every 5000 cycles
Free energy mapping: mapped to a,b,c-coordinates
BarrierPosition:       0.0000000000       0.0000000000       0.0000000000
BarrierNormal:         0.0000000000       0.0000000000       0.0000000000
Start with a molecule on top of the barrier: no
Maximum distance to barrier (e.g. distance to minumum free energy):       0.0000000000 [A]
Maximum trajectory time:      10.0000000000 [ps]
Each configuration is used with 5 different initial velocities


Cbmc parameters
===========================================================================
Biasing method: using only the VDW part
Number of trial positions:                                       10
Number of trial positions (reinsertion):                         10
Number of trial positions (partial reinsertion):                 10
Number of trial positions (identity-change):                     10
Number of trial positions (Gibbs particle transfer):             10
Number of trial positions (insertion/deletion):                  10
Number of trial positions (Widom insertion):                     10
Number of trial positions coupled Torsion-selection:             100
Number of trial positions first bead:                            10
Number of trial positions first bead (reinsertion):              10
Number of trial positions first bead (partial reinsertion):      10
Number of trial positions first bead (identity-change):          10
Number of trial positions first bead (Gibbs particle transfer):  10
Number of trial positions first bead (insertion/deletion):       10
Number of trial positions first bead (Widom insertion):          10
Number of trial moves per open bead:                             150
Target acceptance ratio small-mc scheme:                         0.400000
Energy overlap criteria:                                         1e+07
Minimal Rosenbluth factor:                                       1e-150


Pseudo atoms: 7
===========================================================================
Pseudo Atom[   0] Name UNIT     Oxidation:          Element: H    pdb-name: H    Scat. Types:   1   1 Mass=1.000000000  B-factor:0.000   
                 Charge=1.000000000          Polarization=0.000000000  [A^3] (considered a charged atom and no polarization)  Interactions: yes
                 Anisotropic factor:    0.000 [-] (Absolute), Radius:    1.000 [A], Framework-atom:  no
Pseudo Atom[   1] Name DUMMY    Oxidation: +0       Element: H    pdb-name: H    Scat. Types:   1   1 Mass=1.000000000  B-factor:1.000   
                 Charge=0.000000000          Polarization=0.000000000  [A^3] (considered a chargeless atom and no polarization)  Interactions:  no
                 Anisotropic factor:    0.000 [-] (Absolute), Radius:    1.000 [A], Framework-atom:  no
Pseudo Atom[   2] Name He       Oxidation: +0       Element: He   pdb-name: He   Scat. Types:   3   2 Mass=4.002602000  B-factor:1.000   
                 Charge=0.000000000          Polarization=0.000000000  [A^3] (considered a chargeless atom and no polarization)  Interactions: yes
                 Anisotropic factor:    0.000 [-] (Absolute), Radius:    1.000 [A], Framework-atom:  no
Pseudo Atom[   3] Name Ar       Oxidation: +0       Element: Ar   pdb-name: Ar   Scat. Types:  19  18 Mass=39.948000000 B-factor:1.000   
                 Charge=0.000000000          Polarization=0.000000000  [A^3] (considered a chargeless atom and no polarization)  Interactions: yes
                 Anisotropic factor:    0.000 [-] (Absolute), Radius:    1.000 [A], Framework-atom:  no
Pseudo Atom[   4] Name T        Oxidation: +0       Element: Si   pdb-name: Si   Scat. Types:  15  14 Mass=28.085500000 B-factor:1.000   
                 Charge=0.000000000          Polarization=0.000000000  [A^3] (considered a chargeless atom and no polarization)  Interactions: yes
                 Anisotropic factor:    0.000 [-] (Absolute), Radius:    1.180 [A], Framework-atom: yes (charge from pseudo-atoms file)
Pseudo Atom[   5] Name Al       Oxidation: +0       Element: Al   pdb-name: Al   Scat. Types:  14  13 Mass=26.981539000 B-factor:1.000   
                 Charge=0.000000000          Polarization=0.000000000  [A^3] (considered a chargeless atom and no polarization)  Interactions: yes
                 Anisotropic factor:    0.000 [-] (Absolute), Radius:    1.180 [A], Framework-atom:  no
Pseudo Atom[   6] Name O        Oxidation: +0       Element: O    pdb-name: O    Scat. Types:   9   8 Mass=15.999400000 B-factor:1.000   
                 Charge=0.000000000          Polarization=0.000000000  [A^3] (considered a chargeless atom and no polarization)  Interactions: yes
                 Anisotropic factor:    0.000 [-] (Absolute), Radius:    0.500 [A], Framework-atom: yes (charge from pseudo-atoms file)


Forcefield: local
===========================================================================
Minimal distance: 1
CutOff VDW : 12.800000 (163.840000)
CutOff VDW switching on: 11.520000 (132.710400)
CutOff charge-charge : 12.000000 (144.000000)
CutOff charge-charge switching on: 7.800000 (60.840000)
CutOff charge-bonddipole : 12.000000 (144.000000)
CutOff charge-bondipole switching on: 8.400000 (70.560000)
CutOff bonddipole-bonddipole : 12.000000 (144.000000)
CutOff bonddipole-bondipole switching on: 9.000000 (81.000000)
Polarization is neglected
All potentials are unshifted !!!!!!

General mixing rule: Lorentz-Berthelot mixing rules are used FIRST for cross terms
0 cross terms are overwritten using the individual mixing rules from the file 'force_field_mixing_rules.def'
and then 0 terms are overwritten using the specific interactions from the file 'force_field.def'

The force field and all the interactions:
     He -      He [LENNARD_JONES] p_0/k_B:  10.22000 [K], p_1: 2.58000 [A], shift/k_B:   0.00000000 [K], tailcorrection: no
     He -      Ar [LENNARD_JONES] p_0/k_B:  34.99080 [K], p_1: 2.99000 [A], shift/k_B:   0.00000000 [K], tailcorrection: no
     He -       T [LENNARD_JONES] p_0/k_B:  45.45298 [K], p_1: 3.20300 [A], shift/k_B:   0.00000000 [K], tailcorrection: no
     He -      Al [LENNARD_JONES] p_0/k_B:  50.94376 [K], p_1: 3.29400 [A], shift/k_B:   0.00000000 [K], tailcorrection: no
     He -       O [LENNARD_JONES] p_0/k_B:  17.56827 [K], p_1: 2.84900 [A], shift/k_B:   0.00000000 [K], tailcorrection: no
     Ar -      Ar [LENNARD_JONES] p_0/k_B: 119.80000 [K], p_1: 3.40000 [A], shift/k_B:   0.00000000 [K], tailcorrection: no
     Ar -       T [LENNARD_JONES] p_0/k_B: 155.61995 [K], p_1: 3.61300 [A], shift/k_B:   0.00000000 [K], tailcorrection: no
     Ar -      Al [LENNARD_JONES] p_0/k_B: 174.41907 [K], p_1: 3.70400 [A], shift/k_B:   0.00000000 [K], tailcorrection: no
     Ar -       O [LENNARD_JONES] p_0/k_B:  60.14948 [K], p_1: 3.25900 [A], shift/k_B:   0.00000000 [K], tailcorrection: no
      T -       T [LENNARD_JONES] p_0/k_B: 202.15000 [K], p_1: 3.82600 [A], shift/k_B:   0.00000000 [K], tailcorrection: no
      T -      Al [LENNARD_JONES] p_0/k_B: 226.57001 [K], p_1: 3.91700 [A], shift/k_B:   0.00000000 [K], tailcorrection: no
      T -       O [LENNARD_JONES] p_0/k_B:  78.13405 [K], p_1: 3.47200 [A], shift/k_B:   0.00000000 [K], tailcorrection: no
     Al -      Al [LENNARD_JONES] p_0/k_B: 253.94000 [K], p_1: 4.00800 [A], shift/k_B:   0.00000000 [K], tailcorrection: no
     Al -       O [LENNARD_JONES] p_0/k_B:  87.57276 [K], p_1: 3.56300 [A], shift/k_B:   0.00000000 [K], tailcorrection: no
      O -       O [LENNARD_JONES] p_0/k_B:  30.20000 [K], p_1: 3.11800 [A], shift/k_B:   0.00000000 [K], tailcorrection: no


MoleculeDefinitions:
===========================================================================
Component 0 [argon] (Adsorbate molecule)

	MoleculeDefinitions: argon
	Component contains no atoms with charge
	Component contains no atoms with point dipoles (polarization)
	Component has a net charge of 0.000000

	Ideal chain Rosenbluth weight: 1
	Ideal chain total energy: 0.000000

	Critical temparure [K]: 154.580000
	Critical pressure [Pa]: 5043000.000000
	Acentric factor [-]: 0.000000

	RXMC partition factor ln(q/V) [ln(A^(-3))]:       0.0000000000

	Liquid=stable, Vapour=metastable

	MolFraction:           1.0000000000 [-]
	Compressibility:       0.0034503778 [-]

	Density of the bulk fluid phase:    1621.7781374247 [kg/m^3]

	Binary mixture EOS parameters:  (0): 0.000000

	Amount of excess molecules:       0.0000000000 [-]

	Conversion factor molecules/unit cell -> mol/kg:       0.1300256473 [-]
	Conversion factor molecules/unit cell -> mg/g:       5.1942645583 [-]
	Conversion factor molecules/unit cell -> cm^3 STP/gr:       2.9143917051 [-]
	Conversion factor molecules/unit cell -> cm^3 STP/cm^3:       4.4550642349 [-]
	Conversion factor mol/kg -> cm^3 STP/gr:      22.4139757476 [-]
	Conversion factor mol/kg -> cm^3 STP/cm^3:      34.2629652492 [-]

	Partial pressure:    101325.00000000000000 [Pa]
	                        759.93750000000000 [Torr]
	                          1.01325000000000 [bar]
	                          1.00000000000000 [atm]

	Fugacity coefficient:       1.0000000000 [-]

	Partial fugacity:    101325.00000000000000 [Pa]
	                        759.93750000000000 [Torr]
	                          1.01325000000000 [bar]
	                          1.00000000000000 [atm]

	Molecule contains 1 number of atoms
		atom:    0  is of type:    3 [        Ar] (group: 0)

	Molecule contains 0 chirality centers

	Molecule contains 1 number of groups

		group: 0 containing: 1 elements
		-------------------------------------------------
		the group is modelled as flexible, i.e. no constraints
		Mass: 39.948000 [a.u.]
		Mass: 1.323363 [kg/m^3]

		Rotational Degrees of freedom: 0
		Diagonalized inertia vector:       0.0000000000
		                                   0.0000000000
		                                   0.0000000000
		element: 0 atom: 0 [        Ar] Charge:  0.000000 Anisotropy: 0.000000 Connectivity: 0 ()

		Dipole:           0.0000000000 [D]
		Quadrupole:       0.0000000000       0.0000000000       0.0000000000 [D Angstrom]
		Quadrupole tensor [D Angstrom]
				       0.0000000000       0.0000000000       0.0000000000
				       0.0000000000       0.0000000000       0.0000000000
				       0.0000000000       0.0000000000       0.0000000000

	Starting bead for growth               : 0

	Degrees of freedom                     : 0
	Translational degrees of freedom       : 0
	Rotational degrees of freedom          : 0
	Vibrational degrees of freedom         : 0
	Constraint degrees of freedom          : 0

	Number of atoms                        : 1

	Number of constraint bonds             : 0
	Number of constraint bends             : 0
	Number of constraint inversion bends   : 0
	Number of constraint torsions          : 0
	Number of constraint improper torsions : 0
	Number of constraint improper torsions : 0

	Number of bonds                        : 0
	Number of Urey-Bradleys                : 0
	Number of bends                        : 0
	Number of inversion bends              : 0
	Number of torsions                     : 0
	Number of improper torsions            : 0
	Number of improper torsions            : 0

	Number of bond/bond cross terms        : 0
	Number of bond/bend cross terms        : 0
	Number of bend/bend cross terms        : 0
	Number of stretch/torsion cross terms  : 0
	Number of bend/torsion cross terms     : 0

	Number of charges                      : 0
	Number of bond-dipoles                 : 0

	Number of intra Van der Waals                             : 0
	Number of intra charge-charge Coulomb                     : 0
	Number of intra charge-bonddipole Coulomb                 : 0
	Number of intra bonddipole-bonddipole Coulomb             : 0

	Number of excluded intra charge-charge Coulomb                     : 0
	Number of excluded intra charge-bonddipole Coulomb                 : 0
	Number of excluded intra bonddipole-bonddipole Coulomb             : 0

	Number of cbmc-config moves                               : 0

	Particle Moves:             
		ProbabilityTranslationMove:                  20.000000
			TranslationDirection:      XYZ
		Percentage of random translation moves:            0.000000
		Percentage of rotation moves:                      20.000000
		Percentage of random rotation moves:               0.000000
		Percentage of partial reinsertion moves:           0.000000
		Percentage of reinsertion moves:                   20.000000
		Percentage of reinsertion-in-place moves:          0.000000
		Percentage of reinsertion-in-plane moves:          0.000000
		Percentage of identity-change moves:               0.000000
		Percentage of swap (insert/delete) moves:          40.000000
		Percentage of CF swap lambda moves:                0.000000
		Percentage of CB/CFMC swap lambda moves:           0.000000
		Percentage of Widom insertion moves:               0.000000
		Percentage of CF-Widom insertion moves:            0.000000
		Percentage of Gibbs Widom insertion moves:         0.000000
		Percentage of surface-area moves:                  0.000000
		Percentage of Gibbs particle-transfer moves:       0.000000
		Percentage of Gibbs identity-change moves:         0.000000
		Percentage of CF Gibbs lambda-transfer moves:      0.000000
		Percentage of CB/CFMC Gibbs lambda-transfer moves: 0.000000
		Percentage of exchange frac./int. particle moves:  0.000000
		Percentage of fractional mol. to other box moves:  0.000000
		Percentage of lambda-change moves:                 0.000000
		Percentage of fractional to integer moves:         0.000000

	System Moves:
		Percentage of parallel-tempering moves:            0.000000
		Percentage of hyper-parallel-tempering moves:      0.000000
		Percentage of parallel-mol-fraction moves:         0.000000
			   Component A: 0 B: 1
		Percentage of chiral inversion moves:              0.000000
		Percentage of Hybrid-NVE moves:                    0.000000
		Percentage of Hybrid-NPH moves:                    0.000000
		Percentage of Hybrid-NPHPR moves:                  0.000000
		Percentage of volume-change moves:                 0.000000
		Percentage of box-shape-change moves:              0.000000
		Percentage of Gibbs volume-change moves:           0.000000
		Percentage of framework-change moves:              0.000000
		Percentage of framework-shift moves:               0.000000
		Percentage of reactive MC moves:                   0.000000

	Moves are restricted: No
	No biased sampling used for this component


	number of identity-config changes: 1
	--------------------------------------------
	nr fixed 1: 0 

	Number of pockets blocked in a unitcell: 0
		Pockets are NOT blocked for this component



Framework Status
===========================================================================
Lowenstein's rule obeyed by framework
	Framework is modelled as: rigid

	Number of charges:                               0
	Number of bonddipoles:                           0


System Properties
===========================================================================
Unit cell size: 24.630820 26.651290 12.726730
Cell angles (radians)  alpha: 1.570796 beta: 1.570796 gamma: 1.570796
Cell angles (degrees)  alpha: 90.000000 beta: 90.000000 gamma: 90.000000
Number of unitcells [a]: 2
Number of unitcells [b]: 1
Number of unitcells [c]: 3

RECTANGULAR Boundary conditions: alpha=beta=gamma=90 degrees

Cartesian axis A is collinear with crystallographic axis a
Cartesian axis B is collinear with (axb)xA
Cartesian axis C is collinear with (axb)

lengths of cell vectors:
 49.26164  26.65129  38.18019
cosines of cell angles:
  0.00000   0.00000   0.00000
perpendicular cell widths:
 49.26164  26.65129  38.18019
volume of the cell: 50126.246607613772 (A^3)

Orthogonalization matrix Box
Transforms fractional coordinates abc into orthonormal Cartesian coordinates xyz
Deorthogonalization matrix InverseBox
Transforms orthonormal Cartesian coordinates xyz into fractional coordinates xyz

Box[0]:
	   49.261640000000     0.000000000000     0.000000000000
	    0.000000000000    26.651290000000     0.000000000000
	    0.000000000000     0.000000000000    38.180190000000

Inverse box[0]:
	    0.020299770775    -0.000000000000    -0.000000000000
	    0.000000000000     0.037521635913    -0.000000000000
	    0.000000000000     0.000000000000     0.026191593075


Unitcell box[0]:
	   24.630820000000     0.000000000000     0.000000000000
	    0.000000000000    26.651290000000     0.000000000000
	    0.000000000000     0.000000000000    12.726730000000

Unitcell inverse box[0]:
	    0.040599541550    -0.000000000000    -0.000000000000
	    0.000000000000     0.037521635913    -0.000000000000
	    0.000000000000     0.000000000000     0.078574779225

lengths of cell vectors (inverse box):
  0.02030   0.03752   0.02619
cosines of cell angles (inverse box):
 -0.00000  -0.00000  -0.00000
perpendicular cell widths (inverse):
  0.02030   0.03752   0.02619
volume of the cell: 50126.246607613772 (A^3)

No replicas are used
Framework is simulated as 'rigid'
Number of framework atoms: 2304
Number of framework atoms in the unit cell: 384
Framework Mass: 46144.742400001152 [g/mol]
Framework Density:  1528.642916145136 [kg/m^3]    0.6541750132999 [cm^3/g]
Helium void fraction:    0.00000000
Available pore volume:    0.00000000 [A^3]    0.00000000 [cm^3/g]
Conversion factor from molecule/unit cell -> kmol/m^3: 0.0331271, kmol/m^3 accesible pore volume: inf

Number Of Frameworks (per system): 1
----------------------------------------------------------------------
Framework name: zeolite
Space group: 65
	Identifier: 310
	short international Hermann-Mauguin symbol: C m m m
	long international Hermann-Mauguin symbol: C 2/m 2/m 2/m
	Hall symbol: -C 2 2
	Number of lattice translations: 2 [ (0,0,0) (0.5,0.5,0) ]
	acentric/centric: acentric
	chiral: yes
	enantiomorphic: no
	number of operators: 16
		'x,y,z'
		'-x,-y,z'
		'-x,y,-z'
		'x,-y,-z'
		'-x,-y,-z'
		'x,y,-z'
		'x,-y,z'
		'-x,y,z'
		'x+1/2,y+1/2,z'
		'-x+1/2,-y+1/2,z'
		'-x+1/2,y+1/2,-z'
		'x+1/2,-y+1/2,-z'
		'-x+1/2,-y+1/2,-z'
		'x+1/2,y+1/2,-z'
		'x+1/2,-y+1/2,z'
		'-x+1/2,y+1/2,z'
Framework is simulated as 'rigid'
Shift: 0.000000 0.000000 0.000000
Number of framework atoms: 2304
Number of asymmetric atoms: 35
Number of free framework atoms: 0
Number of fixed framework atoms: 2304
Number of framework atoms in the unit cell: 384
Framework Mass: 46144.742400001152 [g/mol]
Framework Density:  1528.642916145136 [kg/m^3]
Framework has net charge: 0.000000
         largest charge : 0.000000
         smallest charge: 0.000000

Using FULL Host-guest interaction calculation (for testing purposes)

Current Atom Status
===========================================================================
Number of framework atoms        : 2304
Number of cations molecules      : 0
Number of adsorbate molecules    : 0
Component    0 :    0 molecules
Pseudo Atoms    0 [    UNIT]:    0 atoms
Pseudo Atoms    1 [   DUMMY]:    0 atoms
Pseudo Atoms    2 [      He]:    0 atoms
Pseudo Atoms    3 [      Ar]:    0 atoms
Pseudo Atoms    4 [       T]:  768 atoms
Pseudo Atoms    5 [      Al]:    0 atoms
Pseudo Atoms    6 [       O]: 1536 atoms


Current (initial full energy) Energy Status
===========================================================================

Internal energy:
Host stretch energy:                                            0.00000000
Host UreyBradley energy:                                        0.00000000
Host bend energy:                                               0.00000000
Host inversion-bend energy:                                     0.00000000
Host torsion energy:                                            0.00000000
Host improper torsion energy:                                   0.00000000
Host out-of-plane energy:                                       0.00000000
Host stretch/stretch energy:                                    0.00000000
Host bend/bend energy:                                          0.00000000
Host stretch/bend energy:                                       0.00000000
Host stretch/torsion energy:                                    0.00000000
Host bend/torsion energy:                                       0.00000000

Adsorbate stretch energy:                                       0.00000000
Adsorbate UreyBradley energy:                                   0.00000000
Adsorbate bend energy:                                          0.00000000
Adsorbate inversion-bend energy:                                0.00000000
Adsorbate torsion energy:                                       0.00000000
Adsorbate improper torsion energy:                              0.00000000
Adsorbate out-of-plane energy:                                  0.00000000
Adsorbate stretch/stretch energy:                               0.00000000
Adsorbate bend/bend energy:                                     0.00000000
Adsorbate stretch/bend energy:                                  0.00000000
Adsorbate stretch/torsion energy:                               0.00000000
Adsorbate bend/torsion energy:                                  0.00000000
Adsorbate intra VDW energy:                                     0.00000000
Adsorbate intra charge-charge Coulomb energy:                   0.00000000
Adsorbate intra charge-bonddipole Coulomb energy:               0.00000000
Adsorbate intra bonddipole-bonddipole Coulomb energy:           0.00000000

Cation stretch energy:                                          0.00000000
Cation UreyBradley energy:                                      0.00000000
Cation bend energy:                                             0.00000000
Cation inversion-bend energy:                                   0.00000000
Cation torsion energy:                                          0.00000000
Cation improper torsion energy:                                 0.00000000
Cation out-of-plane energy:                                     0.00000000
Cation stretch/stretch energy:                                  0.00000000
Cation bend/bend energy:                                        0.00000000
Cation stretch/bend energy:                                     0.00000000
Cation stretch/torsion energy:                                  0.00000000
Cation bend/torsion energy:                                     0.00000000
Cation intra VDW energy:                                        0.00000000
Cation intra charge-charge Coulomb energy:                      0.00000000
Cation intra charge-bonddipole Coulomb energy:                  0.00000000
Cation intra bonddipole-bonddipole Coulomb energy:              0.00000000

Host/Host energy:                                             0.00000000
	Host/Host VDW energy:                                         0.00000000
	Host/Host Coulomb energy:                                     0.00000000
	Host/Host charge-charge Real energy:                          0.00000000
	Host/Host charge-charge Fourier energy:                       0.00000000
	Host/Host charge-bonddipole Real energy:                      0.00000000
	Host/Host charge-bonddipole Fourier energy:                   0.00000000
	Host/Host bondipole-bonddipole Real energy:                   0.00000000
	Host/Host bondipole-bonddipole Fourier energy:                0.00000000

Host/Adsorbate energy:                                        0.00000000
	Host/Adsorbate VDW energy:                                    0.00000000
	Host/Adsorbate Coulomb energy:                                0.00000000
	Host/Adsorbate charge-charge Real energy:                     0.00000000
	Host/Adsorbate charge-charge Fourier energy:                  0.00000000
	Host/Adsorbate charge-bonddipole Real energy:                 0.00000000
	Host/Adsorbate charge-bonddipole Fourier energy:              0.00000000
	Host/Adsorbate bondipole-bonddipole Real energy:              0.00000000
	Host/Adsorbate bondipole-bonddipole Fourier energy:           0.00000000

Host/Cation energy:                                           0.00000000
	Host/Cation VDW energy:                                       0.00000000
	Host/Cation Coulomb energy:                                   0.00000000
	Host/Cation charge-charge Real energy:                        0.00000000
	Host/Cation charge-charge Fourier energy:                     0.00000000
	Host/Cation charge-bonddipole Real energy:                    0.00000000
	Host/Cation charge-bonddipole Fourier energy:                 0.00000000
	Host/Cation bondipole-bonddipole Real energy:                 0.00000000
	Host/Cation bondipole-bonddipole Fourier energy:              0.00000000

Adsorbate/Adsorbate energy:                                        0.00000000
	Adsorbate/Adsorbate VDW energy:                                    0.00000000
	Adsorbate/Adsorbate Coulomb energy:                                0.00000000
	Adsorbate/Adsorbate charge-charge Real energy:                     0.00000000
	Adsorbate/Adsorbate charge-charge Fourier energy:                  0.00000000
	Adsorbate/Adsorbate charge-bonddipole Real energy:                 0.00000000
	Adsorbate/Adsorbate charge-bonddipole Fourier energy:              0.00000000
	Adsorbate/Adsorbate bondipole-bonddipole Real energy:              0.00000000
	Adsorbate/Adsorbate bondipole-bonddipole Fourier energy:           0.00000000

Adsorbate/Cation energy:                                           0.00000000
	Adsorbate/Cation VDW energy:                                       0.00000000
	Adsorbate/Cation Coulomb energy:                                   0.00000000
	Adsorbate/Cation charge-charge Real energy:                        0.00000000
	Adsorbate/Cation charge-charge Fourier energy:                     0.00000000
	Adsorbate/Cation charge-bonddipole Real energy:                    0.00000000
	Adsorbate/Cation charge-bonddipole Fourier energy:                 0.00000000
	Adsorbate/Cation bondipole-bonddipole Real energy:                 0.00000000
	Adsorbate/Cation bondipole-bonddipole Fourier energy:              0.00000000

Cation/Cation energy:                                           0.00000000
	Cation/Cation VDW energy:                                       0.00000000
	Cation/Cation Coulomb energy:                                   0.00000000
	Cation/Cation charge-charge Real energy:                        0.00000000
	Cation/Cation charge-charge Fourier energy:                     0.00000000
	Cation/Cation charge-bonddipole Real energy:                    0.00000000
	Cation/Cation charge-bonddipole Fourier energy:                 0.00000000
	Cation/Cation bondipole-bonddipole Real energy:                 0.00000000
	Cation/Cation bondipole-bonddipole Fourier energy:              0.00000000

Polarization energy:
	Host polarization energy:                                     0.00000000
	Adsorbate polarization energy:                                0.00000000
	Cation polarization energy:                                   0.00000000
	Host back-polarization energy:                                     0.00000000
	Adsorbate back-polarization energy:                                0.00000000
	Cation back-polarization energy:                                   0.00000000

Tail-correction energy:                                       0.00000000

Distance constraints energy:                                  0.00000000
Angle constraints energy:                                     0.00000000
Dihedral constraints energy:                                  0.00000000
Inversion-bend constraints energy:                            0.00000000
Out-of-plane distance constraints energy:                     0.00000000
Exclusion constraints energy:                                 0.00000000

===================================================================
Total energy:     0.000000000000
	Total Van der Waals: 0.000000
	Total Coulomb: 0.000000

	Total Polarization: 0.000000







+++++++++++++++++++++++++++++++++++++++++++++++++++++++++++++++++++++++++
Starting simulation
+++++++++++++++++++++++++++++++++++++++++++++++++++++++++++++++++++++++++

[Init] Current cycle: 0 out of 100000
========================================================================================================

Net charge: 0 (F: 0, A: 0, C: 0)
Current Box:  49.26164   0.00000   0.00000 [A]
               0.00000  26.65129   0.00000 [A]
               0.00000   0.00000  38.18019 [A]
Box-lengths:  49.26164  26.65129  38.18019 Box-angles:   90.00000  90.00000  90.00000 [degrees]
Volume: 50126.24661 [A^3]

Loadings per component:
----------------------------------------------------------------------------------------------------------------------------------------------------
Component 0 (argon), current number of integer/fractional/reaction molecules: 0/0/0, density:   0.00000 [kg/m^3]
	absolute adsorption:   0.00000 [mol/uc],         0.0000 [mol/kg],              0.0000 [mg/g]
	                                                 0.0000 [cm^3 STP/g],          0.0000 [cm^3 STP/cm^3]
	excess adsorption:     0.00000 [mol/uc],         0.0000 [mol/kg],              0.0000 [mg/g]
	                                                 0.0000 [cm^3 STP/g],          0.0000 [cm^3 STP/cm^3]
----------------------------------------------------------------------------------------------------------------------------------------------------
Degrees of freedom: 0 0 0 0
Number of Framework-atoms:   2304
Number of Adsorbates:           0 (0 integer, 0 fractional, 0 reaction)
Number of Cations:              0 (0 integer, 0 fractional, 0 reaction

Current total potential energy:                 0.0000000000 [K]
	Current Host-Host energy:                     0.0000000000 [K]
	Current Host-Adsorbate energy:                0.0000000000 [K]
	Current Host-Cation energy:                   0.0000000000 [K]
	Current Adsorbate-Adsorbate energy:           0.0000000000 [K]
	Current Cation-Cation energy:                 0.0000000000 [K]
	Current Adsorbate-Cation energy:              0.0000000000 [K]



[Init] Current cycle: 1000 out of 100000
========================================================================================================

Net charge: 0 (F: 0, A: 0, C: 0)
Current Box:  49.26164   0.00000   0.00000 [A]
               0.00000  26.65129   0.00000 [A]
               0.00000   0.00000  38.18019 [A]
Box-lengths:  49.26164  26.65129  38.18019 Box-angles:   90.00000  90.00000  90.00000 [degrees]
Volume: 50126.24661 [A^3]

Loadings per component:
----------------------------------------------------------------------------------------------------------------------------------------------------
Component 0 (argon), current number of integer/fractional/reaction molecules: 408/0/0, density: 539.93243 [kg/m^3]
	absolute adsorption:  68.00000 [mol/uc],         8.8417 [mol/kg],            353.2100 [mg/g]
	                                               198.1786 [cm^3 STP/g],        302.9444 [cm^3 STP/cm^3]
	excess adsorption:    68.00000 [mol/uc],         8.8417 [mol/kg],            353.2100 [mg/g]
	                                               198.1786 [cm^3 STP/g],        302.9444 [cm^3 STP/cm^3]
----------------------------------------------------------------------------------------------------------------------------------------------------
Degrees of freedom: 1224 0 1224 0
Number of Framework-atoms:   2304
Number of Adsorbates:         408 (408 integer, 0 fractional, 0 reaction)
Number of Cations:              0 (0 integer, 0 fractional, 0 reaction

Current total potential energy:           -911189.5236964816 [K]
	Current Host-Host energy:                     0.0000000000 [K]
	Current Host-Adsorbate energy:          -788715.8087380778 [K]
	Current Host-Cation energy:                   0.0000000000 [K]
	Current Adsorbate-Adsorbate energy:     -122473.7149584075 [K]
	Current Cation-Cation energy:                 0.0000000000 [K]
	Current Adsorbate-Cation energy:              0.0000000000 [K]



[Init] Current cycle: 2000 out of 100000
========================================================================================================

Net charge: 0 (F: 0, A: 0, C: 0)
Current Box:  49.26164   0.00000   0.00000 [A]
               0.00000  26.65129   0.00000 [A]
               0.00000   0.00000  38.18019 [A]
Box-lengths:  49.26164  26.65129  38.18019 Box-angles:   90.00000  90.00000  90.00000 [degrees]
Volume: 50126.24661 [A^3]

Loadings per component:
----------------------------------------------------------------------------------------------------------------------------------------------------
Component 0 (argon), current number of integer/fractional/reaction molecules: 435/0/0, density: 575.66325 [kg/m^3]
	absolute adsorption:  72.50000 [mol/uc],         9.4269 [mol/kg],            376.5842 [mg/g]
	                                               211.2934 [cm^3 STP/g],        322.9922 [cm^3 STP/cm^3]
	excess adsorption:    72.50000 [mol/uc],         9.4269 [mol/kg],            376.5842 [mg/g]
	                                               211.2934 [cm^3 STP/g],        322.9922 [cm^3 STP/cm^3]
----------------------------------------------------------------------------------------------------------------------------------------------------
Degrees of freedom: 1305 0 1305 0
Number of Framework-atoms:   2304
Number of Adsorbates:         435 (435 integer, 0 fractional, 0 reaction)
Number of Cations:              0 (0 integer, 0 fractional, 0 reaction

Current total potential energy:           -980004.0998148504 [K]
	Current Host-Host energy:                     0.0000000000 [K]
	Current Host-Adsorbate energy:          -839473.2665274965 [K]
	Current Host-Cation energy:                   0.0000000000 [K]
	Current Adsorbate-Adsorbate energy:     -140530.8332873527 [K]
	Current Cation-Cation energy:                 0.0000000000 [K]
	Current Adsorbate-Cation energy:              0.0000000000 [K]



[Init] Current cycle: 3000 out of 100000
========================================================================================================

Net charge: 0 (F: 0, A: 0, C: 0)
Current Box:  49.26164   0.00000   0.00000 [A]
               0.00000  26.65129   0.00000 [A]
               0.00000   0.00000  38.18019 [A]
Box-lengths:  49.26164  26.65129  38.18019 Box-angles:   90.00000  90.00000  90.00000 [degrees]
Volume: 50126.24661 [A^3]

Loadings per component:
----------------------------------------------------------------------------------------------------------------------------------------------------
Component 0 (argon), current number of integer/fractional/reaction molecules: 445/0/0, density: 588.89689 [kg/m^3]
	absolute adsorption:  74.16667 [mol/uc],         9.6436 [mol/kg],            385.2413 [mg/g]
	                                               216.1507 [cm^3 STP/g],        330.4173 [cm^3 STP/cm^3]
	excess adsorption:    74.16667 [mol/uc],         9.6436 [mol/kg],            385.2413 [mg/g]
	                                               216.1507 [cm^3 STP/g],        330.4173 [cm^3 STP/cm^3]
----------------------------------------------------------------------------------------------------------------------------------------------------
Degrees of freedom: 1335 0 1335 0
Number of Framework-atoms:   2304
Number of Adsorbates:         445 (445 integer, 0 fractional, 0 reaction)
Number of Cations:              0 (0 integer, 0 fractional, 0 reaction

Current total potential energy:          -1002730.5276605252 [K]
	Current Host-Host energy:                     0.0000000000 [K]
	Current Host-Adsorbate energy:          -859945.9354343358 [K]
	Current Host-Cation energy:                   0.0000000000 [K]
	Current Adsorbate-Adsorbate energy:     -142784.5922261854 [K]
	Current Cation-Cation energy:                 0.0000000000 [K]
	Current Adsorbate-Cation energy:              0.0000000000 [K]



[Init] Current cycle: 4000 out of 100000
========================================================================================================

Net charge: 0 (F: 0, A: 0, C: 0)
Current Box:  49.26164   0.00000   0.00000 [A]
               0.00000  26.65129   0.00000 [A]
               0.00000   0.00000  38.18019 [A]
Box-lengths:  49.26164  26.65129  38.18019 Box-angles:   90.00000  90.00000  90.00000 [degrees]
Volume: 50126.24661 [A^3]

Loadings per component:
----------------------------------------------------------------------------------------------------------------------------------------------------
Component 0 (argon), current number of integer/fractional/reaction molecules: 453/0/0, density: 599.48380 [kg/m^3]
	absolute adsorption:  75.50000 [mol/uc],         9.8169 [mol/kg],            392.1670 [mg/g]
	                                               220.0366 [cm^3 STP/g],        336.3573 [cm^3 STP/cm^3]
	excess adsorption:    75.50000 [mol/uc],         9.8169 [mol/kg],            392.1670 [mg/g]
	                                               220.0366 [cm^3 STP/g],        336.3573 [cm^3 STP/cm^3]
----------------------------------------------------------------------------------------------------------------------------------------------------
Degrees of freedom: 1359 0 1359 0
Number of Framework-atoms:   2304
Number of Adsorbates:         453 (453 integer, 0 fractional, 0 reaction)
Number of Cations:              0 (0 integer, 0 fractional, 0 reaction

Current total potential energy:          -1017468.2144778779 [K]
	Current Host-Host energy:                     0.0000000000 [K]
	Current Host-Adsorbate energy:          -874109.8051783902 [K]
	Current Host-Cation energy:                   0.0000000000 [K]
	Current Adsorbate-Adsorbate energy:     -143358.4092994929 [K]
	Current Cation-Cation energy:                 0.0000000000 [K]
	Current Adsorbate-Cation energy:              0.0000000000 [K]



[Init] Current cycle: 5000 out of 100000
========================================================================================================

Net charge: 0 (F: 0, A: 0, C: 0)
Current Box:  49.26164   0.00000   0.00000 [A]
               0.00000  26.65129   0.00000 [A]
               0.00000   0.00000  38.18019 [A]
Box-lengths:  49.26164  26.65129  38.18019 Box-angles:   90.00000  90.00000  90.00000 [degrees]
Volume: 50126.24661 [A^3]

Loadings per component:
----------------------------------------------------------------------------------------------------------------------------------------------------
Component 0 (argon), current number of integer/fractional/reaction molecules: 455/0/0, density: 602.13053 [kg/m^3]
	absolute adsorption:  75.83333 [mol/uc],         9.8603 [mol/kg],            393.8984 [mg/g]
	                                               221.0080 [cm^3 STP/g],        337.8424 [cm^3 STP/cm^3]
	excess adsorption:    75.83333 [mol/uc],         9.8603 [mol/kg],            393.8984 [mg/g]
	                                               221.0080 [cm^3 STP/g],        337.8424 [cm^3 STP/cm^3]
----------------------------------------------------------------------------------------------------------------------------------------------------
Degrees of freedom: 1365 0 1365 0
Number of Framework-atoms:   2304
Number of Adsorbates:         455 (455 integer, 0 fractional, 0 reaction)
Number of Cations:              0 (0 integer, 0 fractional, 0 reaction

Current total potential energy:          -1023757.7250767226 [K]
	Current Host-Host energy:                     0.0000000000 [K]
	Current Host-Adsorbate energy:          -876280.3598312958 [K]
	Current Host-Cation energy:                   0.0000000000 [K]
	Current Adsorbate-Adsorbate energy:     -147477.3652454334 [K]
	Current Cation-Cation energy:                 0.0000000000 [K]
	Current Adsorbate-Cation energy:              0.0000000000 [K]



[Init] Current cycle: 6000 out of 100000
========================================================================================================

Net charge: 0 (F: 0, A: 0, C: 0)
Current Box:  49.26164   0.00000   0.00000 [A]
               0.00000  26.65129   0.00000 [A]
               0.00000   0.00000  38.18019 [A]
Box-lengths:  49.26164  26.65129  38.18019 Box-angles:   90.00000  90.00000  90.00000 [degrees]
Volume: 50126.24661 [A^3]

Loadings per component:
----------------------------------------------------------------------------------------------------------------------------------------------------
Component 0 (argon), current number of integer/fractional/reaction molecules: 460/0/0, density: 608.74735 [kg/m^3]
	absolute adsorption:  76.66667 [mol/uc],         9.9686 [mol/kg],            398.2269 [mg/g]
	                                               223.4367 [cm^3 STP/g],        341.5549 [cm^3 STP/cm^3]
	excess adsorption:    76.66667 [mol/uc],         9.9686 [mol/kg],            398.2269 [mg/g]
	                                               223.4367 [cm^3 STP/g],        341.5549 [cm^3 STP/cm^3]
----------------------------------------------------------------------------------------------------------------------------------------------------
Degrees of freedom: 1380 0 1380 0
Number of Framework-atoms:   2304
Number of Adsorbates:         460 (460 integer, 0 fractional, 0 reaction)
Number of Cations:              0 (0 integer, 0 fractional, 0 reaction

Current total potential energy:          -1037225.0020046567 [K]
	Current Host-Host energy:                     0.0000000000 [K]
	Current Host-Adsorbate energy:          -886324.4035608367 [K]
	Current Host-Cation energy:                   0.0000000000 [K]
	Current Adsorbate-Adsorbate energy:     -150900.5984438546 [K]
	Current Cation-Cation energy:                 0.0000000000 [K]
	Current Adsorbate-Cation energy:              0.0000000000 [K]



[Init] Current cycle: 7000 out of 100000
========================================================================================================

Net charge: 0 (F: 0, A: 0, C: 0)
Current Box:  49.26164   0.00000   0.00000 [A]
               0.00000  26.65129   0.00000 [A]
               0.00000   0.00000  38.18019 [A]
Box-lengths:  49.26164  26.65129  38.18019 Box-angles:   90.00000  90.00000  90.00000 [degrees]
Volume: 50126.24661 [A^3]

Loadings per component:
----------------------------------------------------------------------------------------------------------------------------------------------------
Component 0 (argon), current number of integer/fractional/reaction molecules: 466/0/0, density: 616.68753 [kg/m^3]
	absolute adsorption:  77.66667 [mol/uc],        10.0987 [mol/kg],            403.4212 [mg/g]
	                                               226.3511 [cm^3 STP/g],        346.0100 [cm^3 STP/cm^3]
	excess adsorption:    77.66667 [mol/uc],        10.0987 [mol/kg],            403.4212 [mg/g]
	                                               226.3511 [cm^3 STP/g],        346.0100 [cm^3 STP/cm^3]
----------------------------------------------------------------------------------------------------------------------------------------------------
Degrees of freedom: 1398 0 1398 0
Number of Framework-atoms:   2304
Number of Adsorbates:         466 (466 integer, 0 fractional, 0 reaction)
Number of Cations:              0 (0 integer, 0 fractional, 0 reaction

Current total potential energy:          -1046729.6527079901 [K]
	Current Host-Host energy:                     0.0000000000 [K]
	Current Host-Adsorbate energy:          -893233.4061625662 [K]
	Current Host-Cation energy:                   0.0000000000 [K]
	Current Adsorbate-Adsorbate energy:     -153496.2465454513 [K]
	Current Cation-Cation energy:                 0.0000000000 [K]
	Current Adsorbate-Cation energy:              0.0000000000 [K]



[Init] Current cycle: 8000 out of 100000
========================================================================================================

Net charge: 0 (F: 0, A: 0, C: 0)
Current Box:  49.26164   0.00000   0.00000 [A]
               0.00000  26.65129   0.00000 [A]
               0.00000   0.00000  38.18019 [A]
Box-lengths:  49.26164  26.65129  38.18019 Box-angles:   90.00000  90.00000  90.00000 [degrees]
Volume: 50126.24661 [A^3]

Loadings per component:
----------------------------------------------------------------------------------------------------------------------------------------------------
Component 0 (argon), current number of integer/fractional/reaction molecules: 473/0/0, density: 625.95107 [kg/m^3]
	absolute adsorption:  78.83333 [mol/uc],        10.2504 [mol/kg],            409.4812 [mg/g]
	                                               229.7512 [cm^3 STP/g],        351.2076 [cm^3 STP/cm^3]
	excess adsorption:    78.83333 [mol/uc],        10.2504 [mol/kg],            409.4812 [mg/g]
	                                               229.7512 [cm^3 STP/g],        351.2076 [cm^3 STP/cm^3]
----------------------------------------------------------------------------------------------------------------------------------------------------
Degrees of freedom: 1419 0 1419 0
Number of Framework-atoms:   2304
Number of Adsorbates:         473 (473 integer, 0 fractional, 0 reaction)
Number of Cations:              0 (0 integer, 0 fractional, 0 reaction

Current total potential energy:          -1063205.9537169738 [K]
	Current Host-Host energy:                     0.0000000000 [K]
	Current Host-Adsorbate energy:          -905715.0752067665 [K]
	Current Host-Cation energy:                   0.0000000000 [K]
	Current Adsorbate-Adsorbate energy:     -157490.8785102332 [K]
	Current Cation-Cation energy:                 0.0000000000 [K]
	Current Adsorbate-Cation energy:              0.0000000000 [K]



[Init] Current cycle: 9000 out of 100000
========================================================================================================

Net charge: 0 (F: 0, A: 0, C: 0)
Current Box:  49.26164   0.00000   0.00000 [A]
               0.00000  26.65129   0.00000 [A]
               0.00000   0.00000  38.18019 [A]
Box-lengths:  49.26164  26.65129  38.18019 Box-angles:   90.00000  90.00000  90.00000 [degrees]
Volume: 50126.24661 [A^3]

Loadings per component:
----------------------------------------------------------------------------------------------------------------------------------------------------
Component 0 (argon), current number of integer/fractional/reaction molecules: 478/0/0, density: 632.56789 [kg/m^3]
	absolute adsorption:  79.66667 [mol/uc],        10.3587 [mol/kg],            413.8097 [mg/g]
	                                               232.1799 [cm^3 STP/g],        354.9201 [cm^3 STP/cm^3]
	excess adsorption:    79.66667 [mol/uc],        10.3587 [mol/kg],            413.8097 [mg/g]
	                                               232.1799 [cm^3 STP/g],        354.9201 [cm^3 STP/cm^3]
----------------------------------------------------------------------------------------------------------------------------------------------------
Degrees of freedom: 1434 0 1434 0
Number of Framework-atoms:   2304
Number of Adsorbates:         478 (478 integer, 0 fractional, 0 reaction)
Number of Cations:              0 (0 integer, 0 fractional, 0 reaction

Current total potential energy:          -1065257.3270985470 [K]
	Current Host-Host energy:                     0.0000000000 [K]
	Current Host-Adsorbate energy:          -908488.9935806284 [K]
	Current Host-Cation energy:                   0.0000000000 [K]
	Current Adsorbate-Adsorbate energy:     -156768.3335179459 [K]
	Current Cation-Cation energy:                 0.0000000000 [K]
	Current Adsorbate-Cation energy:              0.0000000000 [K]



[Init] Current cycle: 10000 out of 100000
========================================================================================================

Net charge: 0 (F: 0, A: 0, C: 0)
Current Box:  49.26164   0.00000   0.00000 [A]
               0.00000  26.65129   0.00000 [A]
               0.00000   0.00000  38.18019 [A]
Box-lengths:  49.26164  26.65129  38.18019 Box-angles:   90.00000  90.00000  90.00000 [degrees]
Volume: 50126.24661 [A^3]

Loadings per component:
----------------------------------------------------------------------------------------------------------------------------------------------------
Component 0 (argon), current number of integer/fractional/reaction molecules: 479/0/0, density: 633.89126 [kg/m^3]
	absolute adsorption:  79.83333 [mol/uc],        10.3804 [mol/kg],            414.6755 [mg/g]
	                                               232.6656 [cm^3 STP/g],        355.6626 [cm^3 STP/cm^3]
	excess adsorption:    79.83333 [mol/uc],        10.3804 [mol/kg],            414.6755 [mg/g]
	                                               232.6656 [cm^3 STP/g],        355.6626 [cm^3 STP/cm^3]
----------------------------------------------------------------------------------------------------------------------------------------------------
Degrees of freedom: 1437 0 1437 0
Number of Framework-atoms:   2304
Number of Adsorbates:         479 (479 integer, 0 fractional, 0 reaction)
Number of Cations:              0 (0 integer, 0 fractional, 0 reaction

Current total potential energy:          -1072400.0553675231 [K]
	Current Host-Host energy:                     0.0000000000 [K]
	Current Host-Adsorbate energy:          -913461.4346720712 [K]
	Current Host-Cation energy:                   0.0000000000 [K]
	Current Adsorbate-Adsorbate energy:     -158938.6206954920 [K]
	Current Cation-Cation energy:                 0.0000000000 [K]
	Current Adsorbate-Cation energy:              0.0000000000 [K]



[Init] Current cycle: 11000 out of 100000
========================================================================================================

Net charge: 0 (F: 0, A: 0, C: 0)
Current Box:  49.26164   0.00000   0.00000 [A]
               0.00000  26.65129   0.00000 [A]
               0.00000   0.00000  38.18019 [A]
Box-lengths:  49.26164  26.65129  38.18019 Box-angles:   90.00000  90.00000  90.00000 [degrees]
Volume: 50126.24661 [A^3]

Loadings per component:
----------------------------------------------------------------------------------------------------------------------------------------------------
Component 0 (argon), current number of integer/fractional/reaction molecules: 481/0/0, density: 636.53799 [kg/m^3]
	absolute adsorption:  80.16667 [mol/uc],        10.4237 [mol/kg],            416.4069 [mg/g]
	                                               233.6371 [cm^3 STP/g],        357.1476 [cm^3 STP/cm^3]
	excess adsorption:    80.16667 [mol/uc],        10.4237 [mol/kg],            416.4069 [mg/g]
	                                               233.6371 [cm^3 STP/g],        357.1476 [cm^3 STP/cm^3]
----------------------------------------------------------------------------------------------------------------------------------------------------
Degrees of freedom: 1443 0 1443 0
Number of Framework-atoms:   2304
Number of Adsorbates:         481 (481 integer, 0 fractional, 0 reaction)
Number of Cations:              0 (0 integer, 0 fractional, 0 reaction

Current total potential energy:          -1072666.2827877540 [K]
	Current Host-Host energy:                     0.0000000000 [K]
	Current Host-Adsorbate energy:          -913394.3603060932 [K]
	Current Host-Cation energy:                   0.0000000000 [K]
	Current Adsorbate-Adsorbate energy:     -159271.9224816897 [K]
	Current Cation-Cation energy:                 0.0000000000 [K]
	Current Adsorbate-Cation energy:              0.0000000000 [K]



[Init] Current cycle: 12000 out of 100000
========================================================================================================

Net charge: 0 (F: 0, A: 0, C: 0)
Current Box:  49.26164   0.00000   0.00000 [A]
               0.00000  26.65129   0.00000 [A]
               0.00000   0.00000  38.18019 [A]
Box-lengths:  49.26164  26.65129  38.18019 Box-angles:   90.00000  90.00000  90.00000 [degrees]
Volume: 50126.24661 [A^3]

Loadings per component:
----------------------------------------------------------------------------------------------------------------------------------------------------
Component 0 (argon), current number of integer/fractional/reaction molecules: 482/0/0, density: 637.86135 [kg/m^3]
	absolute adsorption:  80.33333 [mol/uc],        10.4454 [mol/kg],            417.2726 [mg/g]
	                                               234.1228 [cm^3 STP/g],        357.8902 [cm^3 STP/cm^3]
	excess adsorption:    80.33333 [mol/uc],        10.4454 [mol/kg],            417.2726 [mg/g]
	                                               234.1228 [cm^3 STP/g],        357.8902 [cm^3 STP/cm^3]
----------------------------------------------------------------------------------------------------------------------------------------------------
Degrees of freedom: 1446 0 1446 0
Number of Framework-atoms:   2304
Number of Adsorbates:         482 (482 integer, 0 fractional, 0 reaction)
Number of Cations:              0 (0 integer, 0 fractional, 0 reaction

Current total potential energy:          -1077527.0632088427 [K]
	Current Host-Host energy:                     0.0000000000 [K]
	Current Host-Adsorbate energy:          -917800.8953501708 [K]
	Current Host-Cation energy:                   0.0000000000 [K]
	Current Adsorbate-Adsorbate energy:     -159726.1678587126 [K]
	Current Cation-Cation energy:                 0.0000000000 [K]
	Current Adsorbate-Cation energy:              0.0000000000 [K]



[Init] Current cycle: 13000 out of 100000
========================================================================================================

Net charge: 0 (F: 0, A: 0, C: 0)
Current Box:  49.26164   0.00000   0.00000 [A]
               0.00000  26.65129   0.00000 [A]
               0.00000   0.00000  38.18019 [A]
Box-lengths:  49.26164  26.65129  38.18019 Box-angles:   90.00000  90.00000  90.00000 [degrees]
Volume: 50126.24661 [A^3]

Loadings per component:
----------------------------------------------------------------------------------------------------------------------------------------------------
Component 0 (argon), current number of integer/fractional/reaction molecules: 485/0/0, density: 641.83144 [kg/m^3]
	absolute adsorption:  80.83333 [mol/uc],        10.5104 [mol/kg],            419.8697 [mg/g]
	                                               235.5800 [cm^3 STP/g],        360.1177 [cm^3 STP/cm^3]
	excess adsorption:    80.83333 [mol/uc],        10.5104 [mol/kg],            419.8697 [mg/g]
	                                               235.5800 [cm^3 STP/g],        360.1177 [cm^3 STP/cm^3]
----------------------------------------------------------------------------------------------------------------------------------------------------
Degrees of freedom: 1455 0 1455 0
Number of Framework-atoms:   2304
Number of Adsorbates:         485 (485 integer, 0 fractional, 0 reaction)
Number of Cations:              0 (0 integer, 0 fractional, 0 reaction

Current total potential energy:          -1084143.6296415464 [K]
	Current Host-Host energy:                     0.0000000000 [K]
	Current Host-Adsorbate energy:          -921490.1430700301 [K]
	Current Host-Cation energy:                   0.0000000000 [K]
	Current Adsorbate-Adsorbate energy:     -162653.4865715632 [K]
	Current Cation-Cation energy:                 0.0000000000 [K]
	Current Adsorbate-Cation energy:              0.0000000000 [K]



[Init] Current cycle: 14000 out of 100000
========================================================================================================

Net charge: 0 (F: 0, A: 0, C: 0)
Current Box:  49.26164   0.00000   0.00000 [A]
               0.00000  26.65129   0.00000 [A]
               0.00000   0.00000  38.18019 [A]
Box-lengths:  49.26164  26.65129  38.18019 Box-angles:   90.00000  90.00000  90.00000 [degrees]
Volume: 50126.24661 [A^3]

Loadings per component:
----------------------------------------------------------------------------------------------------------------------------------------------------
Component 0 (argon), current number of integer/fractional/reaction molecules: 485/0/0, density: 641.83144 [kg/m^3]
	absolute adsorption:  80.83333 [mol/uc],        10.5104 [mol/kg],            419.8697 [mg/g]
	                                               235.5800 [cm^3 STP/g],        360.1177 [cm^3 STP/cm^3]
	excess adsorption:    80.83333 [mol/uc],        10.5104 [mol/kg],            419.8697 [mg/g]
	                                               235.5800 [cm^3 STP/g],        360.1177 [cm^3 STP/cm^3]
----------------------------------------------------------------------------------------------------------------------------------------------------
Degrees of freedom: 1455 0 1455 0
Number of Framework-atoms:   2304
Number of Adsorbates:         485 (485 integer, 0 fractional, 0 reaction)
Number of Cations:              0 (0 integer, 0 fractional, 0 reaction

Current total potential energy:          -1080183.1605886491 [K]
	Current Host-Host energy:                     0.0000000000 [K]
	Current Host-Adsorbate energy:          -922537.0929281091 [K]
	Current Host-Cation energy:                   0.0000000000 [K]
	Current Adsorbate-Adsorbate energy:     -157646.0676605895 [K]
	Current Cation-Cation energy:                 0.0000000000 [K]
	Current Adsorbate-Cation energy:              0.0000000000 [K]



[Init] Current cycle: 15000 out of 100000
========================================================================================================

Net charge: 0 (F: 0, A: 0, C: 0)
Current Box:  49.26164   0.00000   0.00000 [A]
               0.00000  26.65129   0.00000 [A]
               0.00000   0.00000  38.18019 [A]
Box-lengths:  49.26164  26.65129  38.18019 Box-angles:   90.00000  90.00000  90.00000 [degrees]
Volume: 50126.24661 [A^3]

Loadings per component:
----------------------------------------------------------------------------------------------------------------------------------------------------
Component 0 (argon), current number of integer/fractional/reaction molecules: 485/0/0, density: 641.83144 [kg/m^3]
	absolute adsorption:  80.83333 [mol/uc],        10.5104 [mol/kg],            419.8697 [mg/g]
	                                               235.5800 [cm^3 STP/g],        360.1177 [cm^3 STP/cm^3]
	excess adsorption:    80.83333 [mol/uc],        10.5104 [mol/kg],            419.8697 [mg/g]
	                                               235.5800 [cm^3 STP/g],        360.1177 [cm^3 STP/cm^3]
----------------------------------------------------------------------------------------------------------------------------------------------------
Degrees of freedom: 1455 0 1455 0
Number of Framework-atoms:   2304
Number of Adsorbates:         485 (485 integer, 0 fractional, 0 reaction)
Number of Cations:              0 (0 integer, 0 fractional, 0 reaction

Current total potential energy:          -1085654.7969412017 [K]
	Current Host-Host energy:                     0.0000000000 [K]
	Current Host-Adsorbate energy:          -925116.1435341849 [K]
	Current Host-Cation energy:                   0.0000000000 [K]
	Current Adsorbate-Adsorbate energy:     -160538.6534070532 [K]
	Current Cation-Cation energy:                 0.0000000000 [K]
	Current Adsorbate-Cation energy:              0.0000000000 [K]



[Init] Current cycle: 16000 out of 100000
========================================================================================================

Net charge: 0 (F: 0, A: 0, C: 0)
Current Box:  49.26164   0.00000   0.00000 [A]
               0.00000  26.65129   0.00000 [A]
               0.00000   0.00000  38.18019 [A]
Box-lengths:  49.26164  26.65129  38.18019 Box-angles:   90.00000  90.00000  90.00000 [degrees]
Volume: 50126.24661 [A^3]

Loadings per component:
----------------------------------------------------------------------------------------------------------------------------------------------------
Component 0 (argon), current number of integer/fractional/reaction molecules: 486/0/0, density: 643.15480 [kg/m^3]
	absolute adsorption:  81.00000 [mol/uc],        10.5321 [mol/kg],            420.7354 [mg/g]
	                                               236.0657 [cm^3 STP/g],        360.8602 [cm^3 STP/cm^3]
	excess adsorption:    81.00000 [mol/uc],        10.5321 [mol/kg],            420.7354 [mg/g]
	                                               236.0657 [cm^3 STP/g],        360.8602 [cm^3 STP/cm^3]
----------------------------------------------------------------------------------------------------------------------------------------------------
Degrees of freedom: 1458 0 1458 0
Number of Framework-atoms:   2304
Number of Adsorbates:         486 (486 integer, 0 fractional, 0 reaction)
Number of Cations:              0 (0 integer, 0 fractional, 0 reaction

Current total potential energy:          -1087914.5717163784 [K]
	Current Host-Host energy:                     0.0000000000 [K]
	Current Host-Adsorbate energy:          -923226.2251965544 [K]
	Current Host-Cation energy:                   0.0000000000 [K]
	Current Adsorbate-Adsorbate energy:     -164688.3465198638 [K]
	Current Cation-Cation energy:                 0.0000000000 [K]
	Current Adsorbate-Cation energy:              0.0000000000 [K]



[Init] Current cycle: 17000 out of 100000
========================================================================================================

Net charge: 0 (F: 0, A: 0, C: 0)
Current Box:  49.26164   0.00000   0.00000 [A]
               0.00000  26.65129   0.00000 [A]
               0.00000   0.00000  38.18019 [A]
Box-lengths:  49.26164  26.65129  38.18019 Box-angles:   90.00000  90.00000  90.00000 [degrees]
Volume: 50126.24661 [A^3]

Loadings per component:
----------------------------------------------------------------------------------------------------------------------------------------------------
Component 0 (argon), current number of integer/fractional/reaction molecules: 487/0/0, density: 644.47817 [kg/m^3]
	absolute adsorption:  81.16667 [mol/uc],        10.5537 [mol/kg],            421.6011 [mg/g]
	                                               236.5515 [cm^3 STP/g],        361.6027 [cm^3 STP/cm^3]
	excess adsorption:    81.16667 [mol/uc],        10.5537 [mol/kg],            421.6011 [mg/g]
	                                               236.5515 [cm^3 STP/g],        361.6027 [cm^3 STP/cm^3]
----------------------------------------------------------------------------------------------------------------------------------------------------
Degrees of freedom: 1461 0 1461 0
Number of Framework-atoms:   2304
Number of Adsorbates:         487 (487 integer, 0 fractional, 0 reaction)
Number of Cations:              0 (0 integer, 0 fractional, 0 reaction

Current total potential energy:          -1089748.9076829252 [K]
	Current Host-Host energy:                     0.0000000000 [K]
	Current Host-Adsorbate energy:          -931837.4594322825 [K]
	Current Host-Cation energy:                   0.0000000000 [K]
	Current Adsorbate-Adsorbate energy:     -157911.4482506677 [K]
	Current Cation-Cation energy:                 0.0000000000 [K]
	Current Adsorbate-Cation energy:              0.0000000000 [K]



[Init] Current cycle: 18000 out of 100000
========================================================================================================

Net charge: 0 (F: 0, A: 0, C: 0)
Current Box:  49.26164   0.00000   0.00000 [A]
               0.00000  26.65129   0.00000 [A]
               0.00000   0.00000  38.18019 [A]
Box-lengths:  49.26164  26.65129  38.18019 Box-angles:   90.00000  90.00000  90.00000 [degrees]
Volume: 50126.24661 [A^3]

Loadings per component:
----------------------------------------------------------------------------------------------------------------------------------------------------
Component 0 (argon), current number of integer/fractional/reaction molecules: 490/0/0, density: 648.44826 [kg/m^3]
	absolute adsorption:  81.66667 [mol/uc],        10.6188 [mol/kg],            424.1983 [mg/g]
	                                               238.0087 [cm^3 STP/g],        363.8302 [cm^3 STP/cm^3]
	excess adsorption:    81.66667 [mol/uc],        10.6188 [mol/kg],            424.1983 [mg/g]
	                                               238.0087 [cm^3 STP/g],        363.8302 [cm^3 STP/cm^3]
----------------------------------------------------------------------------------------------------------------------------------------------------
Degrees of freedom: 1470 0 1470 0
Number of Framework-atoms:   2304
Number of Adsorbates:         490 (490 integer, 0 fractional, 0 reaction)
Number of Cations:              0 (0 integer, 0 fractional, 0 reaction

Current total potential energy:          -1092717.6760677504 [K]
	Current Host-Host energy:                     0.0000000000 [K]
	Current Host-Adsorbate energy:          -933198.4011679866 [K]
	Current Host-Cation energy:                   0.0000000000 [K]
	Current Adsorbate-Adsorbate energy:     -159519.2748997659 [K]
	Current Cation-Cation energy:                 0.0000000000 [K]
	Current Adsorbate-Cation energy:              0.0000000000 [K]



[Init] Current cycle: 19000 out of 100000
========================================================================================================

Net charge: 0 (F: 0, A: 0, C: 0)
Current Box:  49.26164   0.00000   0.00000 [A]
               0.00000  26.65129   0.00000 [A]
               0.00000   0.00000  38.18019 [A]
Box-lengths:  49.26164  26.65129  38.18019 Box-angles:   90.00000  90.00000  90.00000 [degrees]
Volume: 50126.24661 [A^3]

Loadings per component:
----------------------------------------------------------------------------------------------------------------------------------------------------
Component 0 (argon), current number of integer/fractional/reaction molecules: 495/0/0, density: 655.06508 [kg/m^3]
	absolute adsorption:  82.50000 [mol/uc],        10.7271 [mol/kg],            428.5268 [mg/g]
	                                               240.4373 [cm^3 STP/g],        367.5428 [cm^3 STP/cm^3]
	excess adsorption:    82.50000 [mol/uc],        10.7271 [mol/kg],            428.5268 [mg/g]
	                                               240.4373 [cm^3 STP/g],        367.5428 [cm^3 STP/cm^3]
----------------------------------------------------------------------------------------------------------------------------------------------------
Degrees of freedom: 1485 0 1485 0
Number of Framework-atoms:   2304
Number of Adsorbates:         495 (495 integer, 0 fractional, 0 reaction)
Number of Cations:              0 (0 integer, 0 fractional, 0 reaction

Current total potential energy:          -1101774.7575218331 [K]
	Current Host-Host energy:                     0.0000000000 [K]
	Current Host-Adsorbate energy:          -935672.2797322363 [K]
	Current Host-Cation energy:                   0.0000000000 [K]
	Current Adsorbate-Adsorbate energy:     -166102.4777895877 [K]
	Current Cation-Cation energy:                 0.0000000000 [K]
	Current Adsorbate-Cation energy:              0.0000000000 [K]



[Init] Current cycle: 20000 out of 100000
========================================================================================================

Net charge: 0 (F: 0, A: 0, C: 0)
Current Box:  49.26164   0.00000   0.00000 [A]
               0.00000  26.65129   0.00000 [A]
               0.00000   0.00000  38.18019 [A]
Box-lengths:  49.26164  26.65129  38.18019 Box-angles:   90.00000  90.00000  90.00000 [degrees]
Volume: 50126.24661 [A^3]

Loadings per component:
----------------------------------------------------------------------------------------------------------------------------------------------------
Component 0 (argon), current number of integer/fractional/reaction molecules: 496/0/0, density: 656.38844 [kg/m^3]
	absolute adsorption:  82.66667 [mol/uc],        10.7488 [mol/kg],            429.3925 [mg/g]
	                                               240.9230 [cm^3 STP/g],        368.2853 [cm^3 STP/cm^3]
	excess adsorption:    82.66667 [mol/uc],        10.7488 [mol/kg],            429.3925 [mg/g]
	                                               240.9230 [cm^3 STP/g],        368.2853 [cm^3 STP/cm^3]
----------------------------------------------------------------------------------------------------------------------------------------------------
Degrees of freedom: 1488 0 1488 0
Number of Framework-atoms:   2304
Number of Adsorbates:         496 (496 integer, 0 fractional, 0 reaction)
Number of Cations:              0 (0 integer, 0 fractional, 0 reaction

Current total potential energy:          -1103008.8524225315 [K]
	Current Host-Host energy:                     0.0000000000 [K]
	Current Host-Adsorbate energy:          -938910.8227480366 [K]
	Current Host-Cation energy:                   0.0000000000 [K]
	Current Adsorbate-Adsorbate energy:     -164098.0296744723 [K]
	Current Cation-Cation energy:                 0.0000000000 [K]
	Current Adsorbate-Cation energy:              0.0000000000 [K]



[Init] Current cycle: 21000 out of 100000
========================================================================================================

Net charge: 0 (F: 0, A: 0, C: 0)
Current Box:  49.26164   0.00000   0.00000 [A]
               0.00000  26.65129   0.00000 [A]
               0.00000   0.00000  38.18019 [A]
Box-lengths:  49.26164  26.65129  38.18019 Box-angles:   90.00000  90.00000  90.00000 [degrees]
Volume: 50126.24661 [A^3]

Loadings per component:
----------------------------------------------------------------------------------------------------------------------------------------------------
Component 0 (argon), current number of integer/fractional/reaction molecules: 499/0/0, density: 660.35853 [kg/m^3]
	absolute adsorption:  83.16667 [mol/uc],        10.8138 [mol/kg],            431.9897 [mg/g]
	                                               242.3802 [cm^3 STP/g],        370.5128 [cm^3 STP/cm^3]
	excess adsorption:    83.16667 [mol/uc],        10.8138 [mol/kg],            431.9897 [mg/g]
	                                               242.3802 [cm^3 STP/g],        370.5128 [cm^3 STP/cm^3]
----------------------------------------------------------------------------------------------------------------------------------------------------
Degrees of freedom: 1497 0 1497 0
Number of Framework-atoms:   2304
Number of Adsorbates:         499 (499 integer, 0 fractional, 0 reaction)
Number of Cations:              0 (0 integer, 0 fractional, 0 reaction

Current total potential energy:          -1110472.8315131173 [K]
	Current Host-Host energy:                     0.0000000000 [K]
	Current Host-Adsorbate energy:          -947435.9700594301 [K]
	Current Host-Cation energy:                   0.0000000000 [K]
	Current Adsorbate-Adsorbate energy:     -163036.8614536677 [K]
	Current Cation-Cation energy:                 0.0000000000 [K]
	Current Adsorbate-Cation energy:              0.0000000000 [K]



[Init] Current cycle: 22000 out of 100000
========================================================================================================

Net charge: 0 (F: 0, A: 0, C: 0)
Current Box:  49.26164   0.00000   0.00000 [A]
               0.00000  26.65129   0.00000 [A]
               0.00000   0.00000  38.18019 [A]
Box-lengths:  49.26164  26.65129  38.18019 Box-angles:   90.00000  90.00000  90.00000 [degrees]
Volume: 50126.24661 [A^3]

Loadings per component:
----------------------------------------------------------------------------------------------------------------------------------------------------
Component 0 (argon), current number of integer/fractional/reaction molecules: 501/0/0, density: 663.00526 [kg/m^3]
	absolute adsorption:  83.50000 [mol/uc],        10.8571 [mol/kg],            433.7211 [mg/g]
	                                               243.3517 [cm^3 STP/g],        371.9979 [cm^3 STP/cm^3]
	excess adsorption:    83.50000 [mol/uc],        10.8571 [mol/kg],            433.7211 [mg/g]
	                                               243.3517 [cm^3 STP/g],        371.9979 [cm^3 STP/cm^3]
----------------------------------------------------------------------------------------------------------------------------------------------------
Degrees of freedom: 1503 0 1503 0
Number of Framework-atoms:   2304
Number of Adsorbates:         501 (501 integer, 0 fractional, 0 reaction)
Number of Cations:              0 (0 integer, 0 fractional, 0 reaction

Current total potential energy:          -1116845.9598656120 [K]
	Current Host-Host energy:                     0.0000000000 [K]
	Current Host-Adsorbate energy:          -951853.8322996491 [K]
	Current Host-Cation energy:                   0.0000000000 [K]
	Current Adsorbate-Adsorbate energy:     -164992.1275659322 [K]
	Current Cation-Cation energy:                 0.0000000000 [K]
[...]
	Block[ 2]            0.00000 [K]
	Block[ 3]            0.00000 [K]
	Block[ 4]            0.00000 [K]
	------------------------------------------------------------------------------
	Average              0.00000 [K] +/-            0.00000 [K]

Average Cation Bend angle inversion energy:
===========================================
	Block[ 0]            0.00000 [K]
	Block[ 1]            0.00000 [K]
	Block[ 2]            0.00000 [K]
	Block[ 3]            0.00000 [K]
	Block[ 4]            0.00000 [K]
	------------------------------------------------------------------------------
	Average              0.00000 [K] +/-            0.00000 [K]

Average Cation Torsion energy:
==============================
	Block[ 0]            0.00000 [K]
	Block[ 1]            0.00000 [K]
	Block[ 2]            0.00000 [K]
	Block[ 3]            0.00000 [K]
	Block[ 4]            0.00000 [K]
	------------------------------------------------------------------------------
	Average              0.00000 [K] +/-            0.00000 [K]

Average Cation Improper Torsion energy:
=======================================
	Block[ 0]            0.00000 [K]
	Block[ 1]            0.00000 [K]
	Block[ 2]            0.00000 [K]
	Block[ 3]            0.00000 [K]
	Block[ 4]            0.00000 [K]
	------------------------------------------------------------------------------
	Average              0.00000 [K] +/-            0.00000 [K]

Average Cation Bond-Bond cross term energy:
=================================================
	Block[ 0]            0.00000 [K]
	Block[ 1]            0.00000 [K]
	Block[ 2]            0.00000 [K]
	Block[ 3]            0.00000 [K]
	Block[ 4]            0.00000 [K]
	------------------------------------------------------------------------------
	Average              0.00000 [K] +/-            0.00000 [K]

Average Cation Bend-Bend cross term energy:
===========================================
	Block[ 0]            0.00000 [K]
	Block[ 1]            0.00000 [K]
	Block[ 2]            0.00000 [K]
	Block[ 3]            0.00000 [K]
	Block[ 4]            0.00000 [K]
	------------------------------------------------------------------------------
	Average              0.00000 [K] +/-            0.00000 [K]

Average Cation Bond-Bend cross term energy:
==============================================
	Block[ 0]            0.00000 [K]
	Block[ 1]            0.00000 [K]
	Block[ 2]            0.00000 [K]
	Block[ 3]            0.00000 [K]
	Block[ 4]            0.00000 [K]
	------------------------------------------------------------------------------
	Average              0.00000 [K] +/-            0.00000 [K]

Average Cation Bond-Torsion cross term energy:
==============================================
	Block[ 0]            0.00000 [K]
	Block[ 1]            0.00000 [K]
	Block[ 2]            0.00000 [K]
	Block[ 3]            0.00000 [K]
	Block[ 4]            0.00000 [K]
	------------------------------------------------------------------------------
	Average              0.00000 [K] +/-            0.00000 [K]

Average Cation Bend-Torsion cross term energy:
==============================================
	Block[ 0]            0.00000 [K]
	Block[ 1]            0.00000 [K]
	Block[ 2]            0.00000 [K]
	Block[ 3]            0.00000 [K]
	Block[ 4]            0.00000 [K]
	------------------------------------------------------------------------------
	Average              0.00000 [K] +/-            0.00000 [K]

Average Cation Intra Van der Waals energy:
==========================================
	Block[ 0]            0.00000 [K]
	Block[ 1]            0.00000 [K]
	Block[ 2]            0.00000 [K]
	Block[ 3]            0.00000 [K]
	Block[ 4]            0.00000 [K]
	------------------------------------------------------------------------------
	Average              0.00000 [K] +/-            0.00000 [K]

Average Cation Intra charge-charge Coulomb energy:
====================================
	Block[ 0]            0.00000 [K]
	Block[ 1]            0.00000 [K]
	Block[ 2]            0.00000 [K]
	Block[ 3]            0.00000 [K]
	Block[ 4]            0.00000 [K]
	------------------------------------------------------------------------------
	Average              0.00000 [K] +/-            0.00000 [K]

Average Cation Intra charge-bonddipole Coulomb energy:
====================================
	Block[ 0]            0.00000 [K]
	Block[ 1]            0.00000 [K]
	Block[ 2]            0.00000 [K]
	Block[ 3]            0.00000 [K]
	Block[ 4]            0.00000 [K]
	------------------------------------------------------------------------------
	Average              0.00000 [K] +/-            0.00000 [K]

Average Cation Intra bonddipole-bonddipole Coulomb energy:
====================================
	Block[ 0]            0.00000 [K]
	Block[ 1]            0.00000 [K]
	Block[ 2]            0.00000 [K]
	Block[ 3]            0.00000 [K]
	Block[ 4]            0.00000 [K]
	------------------------------------------------------------------------------
	Average              0.00000 [K] +/-            0.00000 [K]

Average Host-Host energy:
=========================
	Block[ 0] 0.00000            Van der Waals: 0.00000            Coulomb: 0.00000            [K]
	Block[ 1] 0.00000            Van der Waals: 0.00000            Coulomb: 0.00000            [K]
	Block[ 2] 0.00000            Van der Waals: 0.00000            Coulomb: 0.00000            [K]
	Block[ 3] 0.00000            Van der Waals: 0.00000            Coulomb: 0.00000            [K]
	Block[ 4] 0.00000            Van der Waals: 0.00000            Coulomb: 0.00000            [K]
	------------------------------------------------------------------------------
	Average   0.00000            Van der Waals: 0.000000           Coulomb: 0.00000            [K]
	      +/- 0.00000                       +/- 0.000000                +/- 0.00000            [K]

Average Adsorbate-Adsorbate energy:
===================================
	Block[ 0] -183543.91461      Van der Waals: -183543.91461      Coulomb: 0.00000            [K]
	Block[ 1] -183431.08994      Van der Waals: -183431.08994      Coulomb: 0.00000            [K]
	Block[ 2] -184197.54369      Van der Waals: -184197.54369      Coulomb: 0.00000            [K]
	Block[ 3] -184026.14921      Van der Waals: -184026.14921      Coulomb: 0.00000            [K]
	Block[ 4] -184149.15042      Van der Waals: -184149.15042      Coulomb: 0.00000            [K]
	------------------------------------------------------------------------------
	Average   -183869.56957      Van der Waals: -183869.569573     Coulomb: 0.00000            [K]
	      +/- 637.84964                     +/- 637.849635              +/- 0.00000            [K]

Average Cation-Cation energy:
=============================
	Block[ 0] 0.00000            Van der Waals: 0.00000            Coulomb: 0.00000            [K]
	Block[ 1] 0.00000            Van der Waals: 0.00000            Coulomb: 0.00000            [K]
	Block[ 2] 0.00000            Van der Waals: 0.00000            Coulomb: 0.00000            [K]
	Block[ 3] 0.00000            Van der Waals: 0.00000            Coulomb: 0.00000            [K]
	Block[ 4] 0.00000            Van der Waals: 0.00000            Coulomb: 0.00000            [K]
	------------------------------------------------------------------------------
	Average   0.00000            Van der Waals: 0.000000           Coulomb: 0.00000            [K]
	      +/- 0.00000                       +/- 0.000000                +/- 0.00000            [K]

Average Host-Adsorbate energy:
==============================
	Block[ 0] -1008268.47935     Van der Waals: -1008268.47935     Coulomb: 0.00000            [K]
	Block[ 1] -1010063.39539     Van der Waals: -1010063.39539     Coulomb: 0.00000            [K]
	Block[ 2] -1008687.48149     Van der Waals: -1008687.48149     Coulomb: 0.00000            [K]
	Block[ 3] -1008972.69208     Van der Waals: -1008972.69208     Coulomb: 0.00000            [K]
	Block[ 4] -1008438.67822     Van der Waals: -1008438.67822     Coulomb: 0.00000            [K]
	------------------------------------------------------------------------------
	Average   -1008886.14531     Van der Waals: -1008886.145305    Coulomb: 0.00000            [K]
	      +/- 1269.52383                    +/- 1269.523829             +/- 0.00000            [K]

Average Host-Cation energy:
===========================
	Block[ 0] 0.00000            Van der Waals: 0.00000            Coulomb: 0.00000            [K]
	Block[ 1] 0.00000            Van der Waals: 0.00000            Coulomb: 0.00000            [K]
	Block[ 2] 0.00000            Van der Waals: 0.00000            Coulomb: 0.00000            [K]
	Block[ 3] 0.00000            Van der Waals: 0.00000            Coulomb: 0.00000            [K]
	Block[ 4] 0.00000            Van der Waals: 0.00000            Coulomb: 0.00000            [K]
	------------------------------------------------------------------------------
	Average   0.00000            Van der Waals: 0.000000           Coulomb: 0.00000            [K]
	      +/- 0.00000                       +/- 0.000000                +/- 0.00000            [K]

Average Adsorbate-Cation energy:
================================
	Block[ 0] 0.00000            Van der Waals: 0.00000            Coulomb: 0.00000            [K]
	Block[ 1] 0.00000            Van der Waals: 0.00000            Coulomb: 0.00000            [K]
	Block[ 2] 0.00000            Van der Waals: 0.00000            Coulomb: 0.00000            [K]
	Block[ 3] 0.00000            Van der Waals: 0.00000            Coulomb: 0.00000            [K]
	Block[ 4] 0.00000            Van der Waals: 0.00000            Coulomb: 0.00000            [K]
	------------------------------------------------------------------------------
	Average   0.00000            Van der Waals: 0.000000           Coulomb: 0.00000            [K]
	      +/- 0.00000                       +/- 0.000000                +/- 0.00000            [K]

Host polarization energy:
=======================
	Block[ 0]            0.00000 [K]
	Block[ 1]            0.00000 [K]
	Block[ 2]            0.00000 [K]
	Block[ 3]            0.00000 [K]
	Block[ 4]            0.00000 [K]
	------------------------------------------------------------------------------
	Average              0.00000 [K] +/-            0.00000 [K]

Adsorbate polarization energy:
=======================
	Block[ 0]            0.00000 [K]
	Block[ 1]            0.00000 [K]
	Block[ 2]            0.00000 [K]
	Block[ 3]            0.00000 [K]
	Block[ 4]            0.00000 [K]
	------------------------------------------------------------------------------
	Average              0.00000 [K] +/-            0.00000 [K]

Cation polarization energy:
=======================
	Block[ 0]            0.00000 [K]
	Block[ 1]            0.00000 [K]
	Block[ 2]            0.00000 [K]
	Block[ 3]            0.00000 [K]
	Block[ 4]            0.00000 [K]
	------------------------------------------------------------------------------
	Average              0.00000 [K] +/-            0.00000 [K]

Host back-polarization energy:
=======================
	Block[ 0]            0.00000 [K]
	Block[ 1]            0.00000 [K]
	Block[ 2]            0.00000 [K]
	Block[ 3]            0.00000 [K]
	Block[ 4]            0.00000 [K]
	------------------------------------------------------------------------------
	Average              0.00000 [K] +/-            0.00000 [K]

Adsorbate back-polarization energy:
=======================
	Block[ 0]            0.00000 [K]
	Block[ 1]            0.00000 [K]
	Block[ 2]            0.00000 [K]
	Block[ 3]            0.00000 [K]
	Block[ 4]            0.00000 [K]
	------------------------------------------------------------------------------
	Average              0.00000 [K] +/-            0.00000 [K]

Cation back-polarization energy:
=======================
	Block[ 0]            0.00000 [K]
	Block[ 1]            0.00000 [K]
	Block[ 2]            0.00000 [K]
	Block[ 3]            0.00000 [K]
	Block[ 4]            0.00000 [K]
	------------------------------------------------------------------------------
	Average              0.00000 [K] +/-            0.00000 [K]

Tail-correction energy:
=======================
	Block[ 0]            0.00000 [K]
	Block[ 1]            0.00000 [K]
	Block[ 2]            0.00000 [K]
	Block[ 3]            0.00000 [K]
	Block[ 4]            0.00000 [K]
	------------------------------------------------------------------------------
	Average              0.00000 [K] +/-            0.00000 [K]

Distance-constraints energy:
=======================
	Block[ 0]            0.00000 [K]
	Block[ 1]            0.00000 [K]
	Block[ 2]            0.00000 [K]
	Block[ 3]            0.00000 [K]
	Block[ 4]            0.00000 [K]
	------------------------------------------------------------------------------
	Average              0.00000 [K] +/-            0.00000 [K]

Angle-constraints energy:
=======================
	Block[ 0]            0.00000 [K]
	Block[ 1]            0.00000 [K]
	Block[ 2]            0.00000 [K]
	Block[ 3]            0.00000 [K]
	Block[ 4]            0.00000 [K]
	------------------------------------------------------------------------------
	Average              0.00000 [K] +/-            0.00000 [K]

Dihedral-constraints energy:
=======================
	Block[ 0]            0.00000 [K]
	Block[ 1]            0.00000 [K]
	Block[ 2]            0.00000 [K]
	Block[ 3]            0.00000 [K]
	Block[ 4]            0.00000 [K]
	------------------------------------------------------------------------------
	Average              0.00000 [K] +/-            0.00000 [K]

Inversion-bend constraints energy:
=======================
	Block[ 0]            0.00000 [K]
	Block[ 1]            0.00000 [K]
	Block[ 2]            0.00000 [K]
	Block[ 3]            0.00000 [K]
	Block[ 4]            0.00000 [K]
	------------------------------------------------------------------------------
	Average              0.00000 [K] +/-            0.00000 [K]

Out-of-plane-distance constraints energy:
=======================
	Block[ 0]            0.00000 [K]
	Block[ 1]            0.00000 [K]
	Block[ 2]            0.00000 [K]
	Block[ 3]            0.00000 [K]
	Block[ 4]            0.00000 [K]
	------------------------------------------------------------------------------
	Average              0.00000 [K] +/-            0.00000 [K]

Exclusion-constraints energy:
=======================
	Block[ 0]            0.00000 [K]
	Block[ 1]            0.00000 [K]
	Block[ 2]            0.00000 [K]
	Block[ 3]            0.00000 [K]
	Block[ 4]            0.00000 [K]
	------------------------------------------------------------------------------
	Average              0.00000 [K] +/-            0.00000 [K]

Total energy:
=============
	Block[ 0]     -1191812.39396 [K]
	Block[ 1]     -1193494.48533 [K]
	Block[ 2]     -1192885.02518 [K]
	Block[ 3]     -1192998.84128 [K]
	Block[ 4]     -1192587.82865 [K]
	------------------------------------------------------------------------------
	Average       -1192755.71488 [K] +/-         1109.83008 [K]

Number of molecules:
====================

Component 0 [argon]
-------------------------------------------------------------
	Block[ 0] 539.89720          [-]
	Block[ 1] 541.26100          [-]
	Block[ 2] 540.15715          [-]
	Block[ 3] 540.00000          [-]
	Block[ 4] 539.98770          [-]
	------------------------------------------------------------------------------
	Average                                    540.2606100000 +/-       1.0142774342 [-]
	Average loading absolute [molecules/unit cell]       90.0434350000 +/-       0.1690462390 [-]
	Average loading absolute [mol/kg framework]         11.7079559209 +/-       0.0219803467 [-]
	Average loading absolute [milligram/gram framework]        467.7094231277 +/-       0.8780708881 [-]
	Average loading absolute [cm^3 (STP)/gr framework]        262.4218400647 +/-       0.4926669568 [-]
	Average loading absolute [cm^3 (STP)/cm^3 framework]        401.1492868567 +/-       0.7531118536 [-]

	Block[ 0] 539.89720          [-]
	Block[ 1] 541.26100          [-]
	Block[ 2] 540.15715          [-]
	Block[ 3] 540.00000          [-]
	Block[ 4] 539.98770          [-]
	------------------------------------------------------------------------------
	Average                                    540.2606100000 +/-       1.0142774342 [-]
	Average loading excess [molecules/unit cell]       90.0434350000 +/-       0.1690462390 [-]
	Average loading excess [mol/kg framework]         11.7079559209 +/-       0.0219803467 [-]
	Average loading excess [milligram/gram framework]        467.7094231277 +/-       0.8780708881 [-]
	Average loading excess [cm^3 (STP)/gr framework]        262.4218400647 +/-       0.4926669568 [-]
	Average loading excess [cm^3 (STP)/cm^3 framework]        401.1492868567 +/-       0.7531118536 [-]


Average Widom Rosenbluth factor:
================================
	Block[ 0] 0 [-]
	Block[ 1] 0 [-]
	Block[ 2] 0 [-]
	Block[ 3] 0 [-]
	Block[ 4] 0 [-]
	------------------------------------------------------------------------------
	[argon] Average Widom Rosenbluth-weight:   0 +/- 0.000000 [-]

Average Widom chemical potential:
=================================
	Block[ 0] 0 [-]
	Block[ 1] 0 [-]
	Block[ 2] 0 [-]
	Block[ 3] 0 [-]
	Block[ 4] 0 [-]
	------------------------------------------------------------------------------
	[argon] Average chemical potential:   0 +/- 0.000000 [K]

Average Widom Ideal-gas contribution:
=====================================
	Block[ 0] 0 [-]
	Block[ 1] 0 [-]
	Block[ 2] 0 [-]
	Block[ 3] 0 [-]
	Block[ 4] 0 [-]
	------------------------------------------------------------------------------
	[argon] Average Widom Ideal-gas chemical potential:   0 +/- 0.000000 [-]

Average Widom excess contribution:
==================================
	Block[ 0] 0 [-]
	Block[ 1] 0 [-]
	Block[ 2] 0 [-]
	Block[ 3] 0 [-]
	Block[ 4] 0 [-]
	------------------------------------------------------------------------------
	[argon] Average Widom excess chemical potential:   0 +/- 0.000000 [-]

Average Gibbs Widom Rosenbluth factor:
======================================
	Block[ 0] 0 [-]
	Block[ 1] 0 [-]
	Block[ 2] 0 [-]
	Block[ 3] 0 [-]
	Block[ 4] 0 [-]
	------------------------------------------------------------------------------
	[argon] Average Gibbs Widom Rosenbluth-weight:   0 +/- 0.000000 [-]

Average Gibbs Widom chemical potential:
=======================================
	Block[ 0] 0 [-]
	Block[ 1] 0 [-]
	Block[ 2] 0 [-]
	Block[ 3] 0 [-]
	Block[ 4] 0 [-]
	------------------------------------------------------------------------------
	[argon] Average Gibbs chemical potential:   0 +/- 0.000000 [K]

Average Gibbs Widom Ideal-gas contribution:
===========================================
	Block[ 0] 0 [-]
	Block[ 1] 0 [-]
	Block[ 2] 0 [-]
	Block[ 3] 0 [-]
	Block[ 4] 0 [-]
	------------------------------------------------------------------------------
	[argon] Average Gibbs Ideal-gas chemical potential:   0 +/- 0.000000 [-]

Average Gibbs Widom excess contribution:
===========================================
	Block[ 0] 0 [-]
	Block[ 1] 0 [-]
	Block[ 2] 0 [-]
	Block[ 3] 0 [-]
	Block[ 4] 0 [-]
	------------------------------------------------------------------------------
	[argon] Average Gibbs excess chemical potential:   0 +/- 0.000000 [-]

Average Henry coefficient:
==========================
	Block[ 0] 0 [mol/kg/Pa]
	Block[ 1] 0 [mol/kg/Pa]
	Block[ 2] 0 [mol/kg/Pa]
	Block[ 3] 0 [mol/kg/Pa]
	Block[ 4] 0 [mol/kg/Pa]
	------------------------------------------------------------------------------
	[argon] Average Henry coefficient:  0 +/- 0 [mol/kg/Pa]

Average adsorption energy <U_gh>_1-<U_h>_0 obtained from Widom-insertion:
(Note: the total heat of adsorption is dH=<U_gh>_1-<U_h>_0 - <U_g> - RT)
=========================================================================

Simulation finished,  0 warnings


Tue Jun  8 06:42:37 2021
Simulation finished on Tuesday, June 08.
The end time was 06:42 AM.

