Compiler and run-time data
===========================================================================
RASPA 2.0.37
Compiled as a 64-bits application
Compiler: gcc Intel(R) C++ gcc 4.8.5 mode
Compile Date = May 12 2020, Compile Time = 18:40:55

Sun Jun  6 21:32:11 2021
Simulation started on Sunday, June 06.
The start time was 09:32 PM.

Hostname:    The start time was 09:32 PM.
OS type:     The start time was 09:32 PM.
OS release:  The start time was 09:32 PM.
OS version:  The start time was 09:32 PM.

Simulation
===========================================================================
Dimensions: 3
Random number seed: 1623011528
RASPA directory set to: /mnt/iusers01/ceas01/m86397ah/Installed_software/RASPA
String appended to output-files: 
Number of cycles: 100000
Number of initializing cycles: 100000
Number of equilibration cycles: 0
Print every: 1000
Rectangular boundary condition applied
Timestep: 0.000500
	Degrees of freedom:                        0
	Translational Degrees of freedom:          0
	Rotational Degrees of freedom:             0
	Degrees of freedom Framework:              0


Mutual consistent basic set of units:
======================================
Unit of temperature: Kelvin
Unit of length:      1e-10 [m]
Unit of time:        1e-12 [s]
Unit of mass:        1.66054e-27 [kg]
Unit of charge:      1.60218e-19 [C/particle]

Derived units and their conversion factors:
===========================================
Unit of energy:              1.66054e-23 [J]
Unit of force:               1.66054e-13 [N]
Unit of pressure:            1.66054e+07 [Pa]
Unit of velocity:            100 [m/s]
Unit of acceleration:        1e-08 [m^2/s]
Unit of diffusion:           1e-08 [m^2/s]
Unit of dipole moment:       1.60218e-29 [C.m]
Unit of electric potential:  0.000103643 [V]
Unit of electric field:      1.03643e+06 [V]
Unit of polarizability:      1.54587e-35 [-]
Unit of Coulomb potential:   167101.0800066561  [K]
Unit of dielectric constant: 0.0000154587       [s^2 C^2/(kg m^3)]
Unit of wave vectors:        5.3088374589       [cm^1]
Boltzmann constant:          0.8314464919       [-]

Internal conversion factors:
===========================================
Energy to Kelvin:                                    1.2027242847
FH correction factor                                 2.0211930949
Heat capacity conversion factor:                    10.0000088723
From Debye to internal units:                        4.8032067991
Isothermal compressibility conversion factor:        0.0000000602

Energy conversion factors:
===========================================
From mdyne/A to kcal/mol/A^2:           143.933
From mdyne/A to kj/mol/A^2:             602.214
From mdyne/A to K/A^2:                  72429.7
From mdyne A/rad^2 to kcal/mol/deg^2:   0.0438444


Properties computed
===========================================================================
Movies: yes
	Movie snapshots are appended to file every 1000 cycles
Radial Distribution Function: no
Number of molecules GCMC histogram: no
Histogram of the molecule positions: no
Free energy profiles: no
Pore Size Distribution Function: no
End-to-end distance: no
Histogram of the energy of the system: no
Compute thermodynamic factors: no
Framework spacing histograms: no
Residence times histograms: no
Distance histograms: no
Bend Angle histograms: no
Dihedral angle histograms: no
Angle between planes histograms: no
Molecule properties: no
Infra-red spectra: no
Mean-squared displacement using modified order-N algorithm: no
Velocity-autocorrelation function modified order-N algorithm: no
Rotational velocity-autocorrelation function modified order-N algorithm: no
Molecular orientation-autocorrelation function modified order-N algorithm: no
Bond orientation-autocorrelation function modified order-N algorithm: no
Mean-squared displacement (conventional algorithm): no
Velocity-autocorrelation function (conventional algorithm): no
3D density grid for adsorbates: no
Compute cation an/or adsorption sites: no
dcTST snapshots: no
Compute pressure and stress: no


VTK
===========================================================================
VTK fractional-range position framework atoms: [-0.001000,1.001000] [-0.001000,1.001000] [-0.001000,1.001000]
VTK fractional-range position framework bonds: [-0.151000,1.151000] [-0.151000,1.151000] [-0.151000,1.151000]
VTK fractional-range com-position adsorbate molecules: [-0.101000,1.101000] [-0.101000,1.101000] [-0.101000,1.101000]
VTK fractional-range com-position cation molecules: [-0.101000,1.101000] [-0.101000,1.101000] [-0.101000,1.101000]
	3D free energy grid made for the full simulation-cell


Thermo/Baro-stat NHC parameters
===========================================================================
External temperature: 87 [K]
Beta: 0.0138244 [energy unit]
External Pressure: 101325 [Pa]


Thermostat chain-length: 3
Timescale parameter for thermostat: 0.150000 [ps]
Barostat chain-length:   3
Timescale parameter for barostat:   0.150000 [ps]

Number of Yoshida-Suzuki decomposition steps: 5
Number of respa steps: 5


Method and settings for electrostatics
===============================================================================
Dielectric constant of the medium : 1.000000
Charge from charge-equilibration: no
Ewald summation is used (exact solution of a periodic system)
Relative precision                : 1e-06
Alpha convergence parameter       : 0.265058
kvec (x,y,z)                      : 10 12 14


CFC-RXMC parameters
===========================================================================
Number of reactions: 0


Rattle parameters
===========================================================================
Distance constraint type: r^2-r^2_0
Bend angle constraint type: theta-theta_0
Dihedral angle constraint type: phi-phi_0
Inversion-bend angle constraint type: chi-chi_0
Out-of-plane distance constraint type: r-r_0


Spectra parameters
===========================================================================
Compute normal modes: no


Minimization parameters
===========================================================================
Generalized coordinates are: Cartesian center-of-mass, elements of the orientational matrix p1,p2,p3 and strain
Potential derivatives are evaluated: analytically
Translation of the system is removed from the generalized Hessian: no
Rotation of the system is removed from the generalized Hessian: no
Maximum step-length: 0.3
Convergence factor: 1
Maximum number of minimization steps: 10000
Use gradients in the line-minimizations: yes
RMS gradient tolerance: 1e-06
Maximum gradient tolerance: 1e-06

Distance constraints: 0
Angle constraints: 0
Dihedral constraints: 0

Improper dihedral constraints: 0

Inversion-bend constraints: 0

Out-of-plane constraints: 0

Harmonic distance constraints: 0
Harmonic angle constraints: 0
Harmonic dihedral constraints: 0

Dihedral mid-point measurements: 0

All framework atoms are fixed

Fixed adsorbate atoms:  
Fixed adsorbate groups (center-of-mass):  
Fixed adsorbate groups (orientation):  

Fixed cation atoms:  
Fixed cation groups (center-of-mass):  
Fixed cation groups (orientation):  


dcTST parameters
===========================================================================
Free energy profiles computed: no
Free energy profiles written every 5000 cycles
Free energy mapping: mapped to a,b,c-coordinates
BarrierPosition:       0.0000000000       0.0000000000       0.0000000000
BarrierNormal:         0.0000000000       0.0000000000       0.0000000000
Start with a molecule on top of the barrier: no
Maximum distance to barrier (e.g. distance to minumum free energy):       0.0000000000 [A]
Maximum trajectory time:      10.0000000000 [ps]
Each configuration is used with 5 different initial velocities


Cbmc parameters
===========================================================================
Biasing method: using only the VDW part
Number of trial positions:                                       10
Number of trial positions (reinsertion):                         10
Number of trial positions (partial reinsertion):                 10
Number of trial positions (identity-change):                     10
Number of trial positions (Gibbs particle transfer):             10
Number of trial positions (insertion/deletion):                  10
Number of trial positions (Widom insertion):                     10
Number of trial positions coupled Torsion-selection:             100
Number of trial positions first bead:                            10
Number of trial positions first bead (reinsertion):              10
Number of trial positions first bead (partial reinsertion):      10
Number of trial positions first bead (identity-change):          10
Number of trial positions first bead (Gibbs particle transfer):  10
Number of trial positions first bead (insertion/deletion):       10
Number of trial positions first bead (Widom insertion):          10
Number of trial moves per open bead:                             150
Target acceptance ratio small-mc scheme:                         0.400000
Energy overlap criteria:                                         1e+07
Minimal Rosenbluth factor:                                       1e-150


Pseudo atoms: 7
===========================================================================
Pseudo Atom[   0] Name UNIT     Oxidation:          Element: H    pdb-name: H    Scat. Types:   1   1 Mass=1.000000000  B-factor:0.000   
                 Charge=1.000000000          Polarization=0.000000000  [A^3] (considered a charged atom and no polarization)  Interactions: yes
                 Anisotropic factor:    0.000 [-] (Absolute), Radius:    1.000 [A], Framework-atom:  no
Pseudo Atom[   1] Name DUMMY    Oxidation: +0       Element: H    pdb-name: H    Scat. Types:   1   1 Mass=1.000000000  B-factor:1.000   
                 Charge=0.000000000          Polarization=0.000000000  [A^3] (considered a chargeless atom and no polarization)  Interactions:  no
                 Anisotropic factor:    0.000 [-] (Absolute), Radius:    1.000 [A], Framework-atom:  no
Pseudo Atom[   2] Name He       Oxidation: +0       Element: He   pdb-name: He   Scat. Types:   3   2 Mass=4.002602000  B-factor:1.000   
                 Charge=0.000000000          Polarization=0.000000000  [A^3] (considered a chargeless atom and no polarization)  Interactions: yes
                 Anisotropic factor:    0.000 [-] (Absolute), Radius:    1.000 [A], Framework-atom:  no
Pseudo Atom[   3] Name Ar       Oxidation: +0       Element: Ar   pdb-name: Ar   Scat. Types:  19  18 Mass=39.948000000 B-factor:1.000   
                 Charge=0.000000000          Polarization=0.000000000  [A^3] (considered a chargeless atom and no polarization)  Interactions: yes
                 Anisotropic factor:    0.000 [-] (Absolute), Radius:    1.000 [A], Framework-atom:  no
Pseudo Atom[   4] Name T        Oxidation: +0       Element: Si   pdb-name: Si   Scat. Types:  15  14 Mass=28.085500000 B-factor:1.000   
                 Charge=0.000000000          Polarization=0.000000000  [A^3] (considered a chargeless atom and no polarization)  Interactions: yes
                 Anisotropic factor:    0.000 [-] (Absolute), Radius:    1.180 [A], Framework-atom: yes (charge from pseudo-atoms file)
Pseudo Atom[   5] Name Al       Oxidation: +0       Element: Al   pdb-name: Al   Scat. Types:  14  13 Mass=26.981539000 B-factor:1.000   
                 Charge=0.000000000          Polarization=0.000000000  [A^3] (considered a chargeless atom and no polarization)  Interactions: yes
                 Anisotropic factor:    0.000 [-] (Absolute), Radius:    1.180 [A], Framework-atom:  no
Pseudo Atom[   6] Name O        Oxidation: +0       Element: O    pdb-name: O    Scat. Types:   9   8 Mass=15.999400000 B-factor:1.000   
                 Charge=0.000000000          Polarization=0.000000000  [A^3] (considered a chargeless atom and no polarization)  Interactions: yes
                 Anisotropic factor:    0.000 [-] (Absolute), Radius:    0.500 [A], Framework-atom: yes (charge from pseudo-atoms file)


Forcefield: local
===========================================================================
Minimal distance: 1
CutOff VDW : 12.800000 (163.840000)
CutOff VDW switching on: 11.520000 (132.710400)
CutOff charge-charge : 12.000000 (144.000000)
CutOff charge-charge switching on: 7.800000 (60.840000)
CutOff charge-bonddipole : 12.000000 (144.000000)
CutOff charge-bondipole switching on: 8.400000 (70.560000)
CutOff bonddipole-bonddipole : 12.000000 (144.000000)
CutOff bonddipole-bondipole switching on: 9.000000 (81.000000)
Polarization is neglected
All potentials are unshifted !!!!!!

General mixing rule: Lorentz-Berthelot mixing rules are used FIRST for cross terms
0 cross terms are overwritten using the individual mixing rules from the file 'force_field_mixing_rules.def'
and then 0 terms are overwritten using the specific interactions from the file 'force_field.def'

The force field and all the interactions:
     He -      He [LENNARD_JONES] p_0/k_B:  10.22000 [K], p_1: 2.58000 [A], shift/k_B:   0.00000000 [K], tailcorrection: no
     He -      Ar [LENNARD_JONES] p_0/k_B:  34.99080 [K], p_1: 2.99000 [A], shift/k_B:   0.00000000 [K], tailcorrection: no
     He -       T [LENNARD_JONES] p_0/k_B:  45.45298 [K], p_1: 3.20300 [A], shift/k_B:   0.00000000 [K], tailcorrection: no
     He -      Al [LENNARD_JONES] p_0/k_B:  50.94376 [K], p_1: 3.29400 [A], shift/k_B:   0.00000000 [K], tailcorrection: no
     He -       O [LENNARD_JONES] p_0/k_B:  17.56827 [K], p_1: 2.84900 [A], shift/k_B:   0.00000000 [K], tailcorrection: no
     Ar -      Ar [LENNARD_JONES] p_0/k_B: 119.80000 [K], p_1: 3.40000 [A], shift/k_B:   0.00000000 [K], tailcorrection: no
     Ar -       T [LENNARD_JONES] p_0/k_B: 155.61995 [K], p_1: 3.61300 [A], shift/k_B:   0.00000000 [K], tailcorrection: no
     Ar -      Al [LENNARD_JONES] p_0/k_B: 174.41907 [K], p_1: 3.70400 [A], shift/k_B:   0.00000000 [K], tailcorrection: no
     Ar -       O [LENNARD_JONES] p_0/k_B:  60.14948 [K], p_1: 3.25900 [A], shift/k_B:   0.00000000 [K], tailcorrection: no
      T -       T [LENNARD_JONES] p_0/k_B: 202.15000 [K], p_1: 3.82600 [A], shift/k_B:   0.00000000 [K], tailcorrection: no
      T -      Al [LENNARD_JONES] p_0/k_B: 226.57001 [K], p_1: 3.91700 [A], shift/k_B:   0.00000000 [K], tailcorrection: no
      T -       O [LENNARD_JONES] p_0/k_B:  78.13405 [K], p_1: 3.47200 [A], shift/k_B:   0.00000000 [K], tailcorrection: no
     Al -      Al [LENNARD_JONES] p_0/k_B: 253.94000 [K], p_1: 4.00800 [A], shift/k_B:   0.00000000 [K], tailcorrection: no
     Al -       O [LENNARD_JONES] p_0/k_B:  87.57276 [K], p_1: 3.56300 [A], shift/k_B:   0.00000000 [K], tailcorrection: no
      O -       O [LENNARD_JONES] p_0/k_B:  30.20000 [K], p_1: 3.11800 [A], shift/k_B:   0.00000000 [K], tailcorrection: no


MoleculeDefinitions:
===========================================================================
Component 0 [argon] (Adsorbate molecule)

	MoleculeDefinitions: argon
	Component contains no atoms with charge
	Component contains no atoms with point dipoles (polarization)
	Component has a net charge of 0.000000

	Ideal chain Rosenbluth weight: 1
	Ideal chain total energy: 0.000000

	Critical temparure [K]: 154.580000
	Critical pressure [Pa]: 5043000.000000
	Acentric factor [-]: 0.000000

	RXMC partition factor ln(q/V) [ln(A^(-3))]:       0.0000000000

	Liquid=stable, Vapour=metastable

	MolFraction:           1.0000000000 [-]
	Compressibility:       0.0034503778 [-]

	Density of the bulk fluid phase:    1621.7781374247 [kg/m^3]

	Binary mixture EOS parameters:  (0): 0.000000

	Amount of excess molecules:       0.0000000000 [-]

	Conversion factor molecules/unit cell -> mol/kg:       0.1486007398 [-]
	Conversion factor molecules/unit cell -> mg/g:       5.9363023523 [-]
	Conversion factor molecules/unit cell -> cm^3 STP/gr:       3.3307333773 [-]
	Conversion factor molecules/unit cell -> cm^3 STP/cm^3:       5.7662294031 [-]
	Conversion factor mol/kg -> cm^3 STP/gr:      22.4139757476 [-]
	Conversion factor mol/kg -> cm^3 STP/cm^3:      38.8035040205 [-]

	Partial pressure:    101325.00000000000000 [Pa]
	                        759.93750000000000 [Torr]
	                          1.01325000000000 [bar]
	                          1.00000000000000 [atm]

	Fugacity coefficient:       1.0000000000 [-]

	Partial fugacity:    101325.00000000000000 [Pa]
	                        759.93750000000000 [Torr]
	                          1.01325000000000 [bar]
	                          1.00000000000000 [atm]

	Molecule contains 1 number of atoms
		atom:    0  is of type:    3 [        Ar] (group: 0)

	Molecule contains 0 chirality centers

	Molecule contains 1 number of groups

		group: 0 containing: 1 elements
		-------------------------------------------------
		the group is modelled as flexible, i.e. no constraints
		Mass: 39.948000 [a.u.]
		Mass: 0.856420 [kg/m^3]

		Rotational Degrees of freedom: 0
		Diagonalized inertia vector:       0.0000000000
		                                   0.0000000000
		                                   0.0000000000
		element: 0 atom: 0 [        Ar] Charge:  0.000000 Anisotropy: 0.000000 Connectivity: 0 ()

		Dipole:           0.0000000000 [D]
		Quadrupole:       0.0000000000       0.0000000000       0.0000000000 [D Angstrom]
		Quadrupole tensor [D Angstrom]
				       0.0000000000       0.0000000000       0.0000000000
				       0.0000000000       0.0000000000       0.0000000000
				       0.0000000000       0.0000000000       0.0000000000

	Starting bead for growth               : 0

	Degrees of freedom                     : 0
	Translational degrees of freedom       : 0
	Rotational degrees of freedom          : 0
	Vibrational degrees of freedom         : 0
	Constraint degrees of freedom          : 0

	Number of atoms                        : 1

	Number of constraint bonds             : 0
	Number of constraint bends             : 0
	Number of constraint inversion bends   : 0
	Number of constraint torsions          : 0
	Number of constraint improper torsions : 0
	Number of constraint improper torsions : 0

	Number of bonds                        : 0
	Number of Urey-Bradleys                : 0
	Number of bends                        : 0
	Number of inversion bends              : 0
	Number of torsions                     : 0
	Number of improper torsions            : 0
	Number of improper torsions            : 0

	Number of bond/bond cross terms        : 0
	Number of bond/bend cross terms        : 0
	Number of bend/bend cross terms        : 0
	Number of stretch/torsion cross terms  : 0
	Number of bend/torsion cross terms     : 0

	Number of charges                      : 0
	Number of bond-dipoles                 : 0

	Number of intra Van der Waals                             : 0
	Number of intra charge-charge Coulomb                     : 0
	Number of intra charge-bonddipole Coulomb                 : 0
	Number of intra bonddipole-bonddipole Coulomb             : 0

	Number of excluded intra charge-charge Coulomb                     : 0
	Number of excluded intra charge-bonddipole Coulomb                 : 0
	Number of excluded intra bonddipole-bonddipole Coulomb             : 0

	Number of cbmc-config moves                               : 0

	Particle Moves:             
		ProbabilityTranslationMove:                  20.000000
			TranslationDirection:      XYZ
		Percentage of random translation moves:            0.000000
		Percentage of rotation moves:                      20.000000
		Percentage of random rotation moves:               0.000000
		Percentage of partial reinsertion moves:           0.000000
		Percentage of reinsertion moves:                   20.000000
		Percentage of reinsertion-in-place moves:          0.000000
		Percentage of reinsertion-in-plane moves:          0.000000
		Percentage of identity-change moves:               0.000000
		Percentage of swap (insert/delete) moves:          40.000000
		Percentage of CF swap lambda moves:                0.000000
		Percentage of CB/CFMC swap lambda moves:           0.000000
		Percentage of Widom insertion moves:               0.000000
		Percentage of CF-Widom insertion moves:            0.000000
		Percentage of Gibbs Widom insertion moves:         0.000000
		Percentage of surface-area moves:                  0.000000
		Percentage of Gibbs particle-transfer moves:       0.000000
		Percentage of Gibbs identity-change moves:         0.000000
		Percentage of CF Gibbs lambda-transfer moves:      0.000000
		Percentage of CB/CFMC Gibbs lambda-transfer moves: 0.000000
		Percentage of exchange frac./int. particle moves:  0.000000
		Percentage of fractional mol. to other box moves:  0.000000
		Percentage of lambda-change moves:                 0.000000
		Percentage of fractional to integer moves:         0.000000

	System Moves:
		Percentage of parallel-tempering moves:            0.000000
		Percentage of hyper-parallel-tempering moves:      0.000000
		Percentage of parallel-mol-fraction moves:         0.000000
			   Component A: 0 B: 1
		Percentage of chiral inversion moves:              0.000000
		Percentage of Hybrid-NVE moves:                    0.000000
		Percentage of Hybrid-NPH moves:                    0.000000
		Percentage of Hybrid-NPHPR moves:                  0.000000
		Percentage of volume-change moves:                 0.000000
		Percentage of box-shape-change moves:              0.000000
		Percentage of Gibbs volume-change moves:           0.000000
		Percentage of framework-change moves:              0.000000
		Percentage of framework-shift moves:               0.000000
		Percentage of reactive MC moves:                   0.000000

	Moves are restricted: No
	No biased sampling used for this component


	number of identity-config changes: 1
	--------------------------------------------
	nr fixed 1: 0 

	Number of pockets blocked in a unitcell: 0
		Pockets are NOT blocked for this component



Framework Status
===========================================================================
Lowenstein's rule obeyed by framework
	Framework is modelled as: rigid

	Number of charges:                               0
	Number of bonddipoles:                           0


System Properties
===========================================================================
Unit cell size: 11.673000 21.969000 25.170000
Cell angles (radians)  alpha: 1.570796 beta: 1.570796 gamma: 1.570796
Cell angles (degrees)  alpha: 90.000000 beta: 90.000000 gamma: 90.000000
Number of unitcells [a]: 3
Number of unitcells [b]: 2
Number of unitcells [c]: 2

RECTANGULAR Boundary conditions: alpha=beta=gamma=90 degrees

Cartesian axis A is collinear with crystallographic axis a
Cartesian axis B is collinear with (axb)xA
Cartesian axis C is collinear with (axb)

lengths of cell vectors:
 35.01900  43.93800  50.34000
cosines of cell angles:
  0.00000   0.00000   0.00000
perpendicular cell widths:
 35.01900  43.93800  50.34000
volume of the cell: 77456.387139480008 (A^3)

Orthogonalization matrix Box
Transforms fractional coordinates abc into orthonormal Cartesian coordinates xyz
Deorthogonalization matrix InverseBox
Transforms orthonormal Cartesian coordinates xyz into fractional coordinates xyz

Box[0]:
	   35.019000000000     0.000000000000     0.000000000000
	    0.000000000000    43.938000000000     0.000000000000
	    0.000000000000     0.000000000000    50.340000000000

Inverse box[0]:
	    0.028555926783    -0.000000000000    -0.000000000000
	    0.000000000000     0.022759342710    -0.000000000000
	    0.000000000000     0.000000000000     0.019864918554


Unitcell box[0]:
	   11.673000000000     0.000000000000     0.000000000000
	    0.000000000000    21.969000000000     0.000000000000
	    0.000000000000     0.000000000000    25.170000000000

Unitcell inverse box[0]:
	    0.085667780348    -0.000000000000    -0.000000000000
	    0.000000000000     0.045518685420    -0.000000000000
	    0.000000000000     0.000000000000     0.039729837108

lengths of cell vectors (inverse box):
  0.02856   0.02276   0.01986
cosines of cell angles (inverse box):
 -0.00000  -0.00000  -0.00000
perpendicular cell widths (inverse):
  0.02856   0.02276   0.01986
volume of the cell: 77456.387139480008 (A^3)

No replicas are used
Framework is simulated as 'rigid'
Number of framework atoms: 4032
Number of framework atoms in the unit cell: 336
Framework Mass: 80753.299200002453 [g/mol]
Framework Density:  1731.219149047811 [kg/m^3]    0.5776276218698 [cm^3/g]
Helium void fraction:    0.00000000
Available pore volume:    0.00000000 [A^3]    0.00000000 [cm^3/g]
Conversion factor from molecule/unit cell -> kmol/m^3: 0.0214384, kmol/m^3 accesible pore volume: inf

Number Of Frameworks (per system): 1
----------------------------------------------------------------------
Framework name: zeolite
Space group: 63
	Identifier: 298
	short international Hermann-Mauguin symbol: C m c m
	long international Hermann-Mauguin symbol: C 2/m 2/c 21/m
	Hall symbol: -C 2c 2
	Number of lattice translations: 2 [ (0,0,0) (0.5,0.5,0) ]
	acentric/centric: acentric
	chiral: yes
	enantiomorphic: no
	number of operators: 16
		'x,y,z'
		'-x,-y,z+1/2'
		'-x,y,-z+1/2'
		'x,-y,-z'
		'-x,-y,-z'
		'x,y,-z+1/2'
		'x,-y,z+1/2'
		'-x,y,z'
		'x+1/2,y+1/2,z'
		'-x+1/2,-y+1/2,z+1/2'
		'-x+1/2,y+1/2,-z+1/2'
		'x+1/2,-y+1/2,-z'
		'-x+1/2,-y+1/2,-z'
		'x+1/2,y+1/2,-z+1/2'
		'x+1/2,-y+1/2,z+1/2'
		'-x+1/2,y+1/2,z'
Framework is simulated as 'rigid'
Shift: 0.000000 0.000000 0.000000
Number of framework atoms: 4032
Number of asymmetric atoms: 29
Number of free framework atoms: 0
Number of fixed framework atoms: 4032
Number of framework atoms in the unit cell: 336
Framework Mass: 80753.299200002453 [g/mol]
Framework Density:  1731.219149047811 [kg/m^3]
Framework has net charge: 0.000000
         largest charge : 0.000000
         smallest charge: 0.000000

Using FULL Host-guest interaction calculation (for testing purposes)

Current Atom Status
===========================================================================
Number of framework atoms        : 4032
Number of cations molecules      : 0
Number of adsorbate molecules    : 0
Component    0 :    0 molecules
Pseudo Atoms    0 [    UNIT]:    0 atoms
Pseudo Atoms    1 [   DUMMY]:    0 atoms
Pseudo Atoms    2 [      He]:    0 atoms
Pseudo Atoms    3 [      Ar]:    0 atoms
Pseudo Atoms    4 [       T]: 1344 atoms
Pseudo Atoms    5 [      Al]:    0 atoms
Pseudo Atoms    6 [       O]: 2688 atoms


Current (initial full energy) Energy Status
===========================================================================

Internal energy:
Host stretch energy:                                            0.00000000
Host UreyBradley energy:                                        0.00000000
Host bend energy:                                               0.00000000
Host inversion-bend energy:                                     0.00000000
Host torsion energy:                                            0.00000000
Host improper torsion energy:                                   0.00000000
Host out-of-plane energy:                                       0.00000000
Host stretch/stretch energy:                                    0.00000000
Host bend/bend energy:                                          0.00000000
Host stretch/bend energy:                                       0.00000000
Host stretch/torsion energy:                                    0.00000000
Host bend/torsion energy:                                       0.00000000

Adsorbate stretch energy:                                       0.00000000
Adsorbate UreyBradley energy:                                   0.00000000
Adsorbate bend energy:                                          0.00000000
Adsorbate inversion-bend energy:                                0.00000000
Adsorbate torsion energy:                                       0.00000000
Adsorbate improper torsion energy:                              0.00000000
Adsorbate out-of-plane energy:                                  0.00000000
Adsorbate stretch/stretch energy:                               0.00000000
Adsorbate bend/bend energy:                                     0.00000000
Adsorbate stretch/bend energy:                                  0.00000000
Adsorbate stretch/torsion energy:                               0.00000000
Adsorbate bend/torsion energy:                                  0.00000000
Adsorbate intra VDW energy:                                     0.00000000
Adsorbate intra charge-charge Coulomb energy:                   0.00000000
Adsorbate intra charge-bonddipole Coulomb energy:               0.00000000
Adsorbate intra bonddipole-bonddipole Coulomb energy:           0.00000000

Cation stretch energy:                                          0.00000000
Cation UreyBradley energy:                                      0.00000000
Cation bend energy:                                             0.00000000
Cation inversion-bend energy:                                   0.00000000
Cation torsion energy:                                          0.00000000
Cation improper torsion energy:                                 0.00000000
Cation out-of-plane energy:                                     0.00000000
Cation stretch/stretch energy:                                  0.00000000
Cation bend/bend energy:                                        0.00000000
Cation stretch/bend energy:                                     0.00000000
Cation stretch/torsion energy:                                  0.00000000
Cation bend/torsion energy:                                     0.00000000
Cation intra VDW energy:                                        0.00000000
Cation intra charge-charge Coulomb energy:                      0.00000000
Cation intra charge-bonddipole Coulomb energy:                  0.00000000
Cation intra bonddipole-bonddipole Coulomb energy:              0.00000000

Host/Host energy:                                             0.00000000
	Host/Host VDW energy:                                         0.00000000
	Host/Host Coulomb energy:                                     0.00000000
	Host/Host charge-charge Real energy:                          0.00000000
	Host/Host charge-charge Fourier energy:                       0.00000000
	Host/Host charge-bonddipole Real energy:                      0.00000000
	Host/Host charge-bonddipole Fourier energy:                   0.00000000
	Host/Host bondipole-bonddipole Real energy:                   0.00000000
	Host/Host bondipole-bonddipole Fourier energy:                0.00000000

Host/Adsorbate energy:                                        0.00000000
	Host/Adsorbate VDW energy:                                    0.00000000
	Host/Adsorbate Coulomb energy:                                0.00000000
	Host/Adsorbate charge-charge Real energy:                     0.00000000
	Host/Adsorbate charge-charge Fourier energy:                  0.00000000
	Host/Adsorbate charge-bonddipole Real energy:                 0.00000000
	Host/Adsorbate charge-bonddipole Fourier energy:              0.00000000
	Host/Adsorbate bondipole-bonddipole Real energy:              0.00000000
	Host/Adsorbate bondipole-bonddipole Fourier energy:           0.00000000

Host/Cation energy:                                           0.00000000
	Host/Cation VDW energy:                                       0.00000000
	Host/Cation Coulomb energy:                                   0.00000000
	Host/Cation charge-charge Real energy:                        0.00000000
	Host/Cation charge-charge Fourier energy:                     0.00000000
	Host/Cation charge-bonddipole Real energy:                    0.00000000
	Host/Cation charge-bonddipole Fourier energy:                 0.00000000
	Host/Cation bondipole-bonddipole Real energy:                 0.00000000
	Host/Cation bondipole-bonddipole Fourier energy:              0.00000000

Adsorbate/Adsorbate energy:                                        0.00000000
	Adsorbate/Adsorbate VDW energy:                                    0.00000000
	Adsorbate/Adsorbate Coulomb energy:                                0.00000000
	Adsorbate/Adsorbate charge-charge Real energy:                     0.00000000
	Adsorbate/Adsorbate charge-charge Fourier energy:                  0.00000000
	Adsorbate/Adsorbate charge-bonddipole Real energy:                 0.00000000
	Adsorbate/Adsorbate charge-bonddipole Fourier energy:              0.00000000
	Adsorbate/Adsorbate bondipole-bonddipole Real energy:              0.00000000
	Adsorbate/Adsorbate bondipole-bonddipole Fourier energy:           0.00000000

Adsorbate/Cation energy:                                           0.00000000
	Adsorbate/Cation VDW energy:                                       0.00000000
	Adsorbate/Cation Coulomb energy:                                   0.00000000
	Adsorbate/Cation charge-charge Real energy:                        0.00000000
	Adsorbate/Cation charge-charge Fourier energy:                     0.00000000
	Adsorbate/Cation charge-bonddipole Real energy:                    0.00000000
	Adsorbate/Cation charge-bonddipole Fourier energy:                 0.00000000
	Adsorbate/Cation bondipole-bonddipole Real energy:                 0.00000000
	Adsorbate/Cation bondipole-bonddipole Fourier energy:              0.00000000

Cation/Cation energy:                                           0.00000000
	Cation/Cation VDW energy:                                       0.00000000
	Cation/Cation Coulomb energy:                                   0.00000000
	Cation/Cation charge-charge Real energy:                        0.00000000
	Cation/Cation charge-charge Fourier energy:                     0.00000000
	Cation/Cation charge-bonddipole Real energy:                    0.00000000
	Cation/Cation charge-bonddipole Fourier energy:                 0.00000000
	Cation/Cation bondipole-bonddipole Real energy:                 0.00000000
	Cation/Cation bondipole-bonddipole Fourier energy:              0.00000000

Polarization energy:
	Host polarization energy:                                     0.00000000
	Adsorbate polarization energy:                                0.00000000
	Cation polarization energy:                                   0.00000000
	Host back-polarization energy:                                     0.00000000
	Adsorbate back-polarization energy:                                0.00000000
	Cation back-polarization energy:                                   0.00000000

Tail-correction energy:                                       0.00000000

Distance constraints energy:                                  0.00000000
Angle constraints energy:                                     0.00000000
Dihedral constraints energy:                                  0.00000000
Inversion-bend constraints energy:                            0.00000000
Out-of-plane distance constraints energy:                     0.00000000
Exclusion constraints energy:                                 0.00000000

===================================================================
Total energy:     0.000000000000
	Total Van der Waals: 0.000000
	Total Coulomb: 0.000000

	Total Polarization: 0.000000







+++++++++++++++++++++++++++++++++++++++++++++++++++++++++++++++++++++++++
Starting simulation
+++++++++++++++++++++++++++++++++++++++++++++++++++++++++++++++++++++++++

[Init] Current cycle: 0 out of 100000
========================================================================================================

Net charge: 0 (F: 0, A: 0, C: 0)
Current Box:  35.01900   0.00000   0.00000 [A]
               0.00000  43.93800   0.00000 [A]
               0.00000   0.00000  50.34000 [A]
Box-lengths:  35.01900  43.93800  50.34000 Box-angles:   90.00000  90.00000  90.00000 [degrees]
Volume: 77456.38714 [A^3]

Loadings per component:
----------------------------------------------------------------------------------------------------------------------------------------------------
Component 0 (argon), current number of integer/fractional/reaction molecules: 0/0/0, density:   0.00000 [kg/m^3]
	absolute adsorption:   0.00000 [mol/uc],         0.0000 [mol/kg],              0.0000 [mg/g]
	                                                 0.0000 [cm^3 STP/g],          0.0000 [cm^3 STP/cm^3]
	excess adsorption:     0.00000 [mol/uc],         0.0000 [mol/kg],              0.0000 [mg/g]
	                                                 0.0000 [cm^3 STP/g],          0.0000 [cm^3 STP/cm^3]
----------------------------------------------------------------------------------------------------------------------------------------------------
Degrees of freedom: 0 0 0 0
Number of Framework-atoms:   4032
Number of Adsorbates:           0 (0 integer, 0 fractional, 0 reaction)
Number of Cations:              0 (0 integer, 0 fractional, 0 reaction

Current total potential energy:                 0.0000000000 [K]
	Current Host-Host energy:                     0.0000000000 [K]
	Current Host-Adsorbate energy:                0.0000000000 [K]
	Current Host-Cation energy:                   0.0000000000 [K]
	Current Adsorbate-Adsorbate energy:           0.0000000000 [K]
	Current Cation-Cation energy:                 0.0000000000 [K]
	Current Adsorbate-Cation energy:              0.0000000000 [K]



[Init] Current cycle: 1000 out of 100000
========================================================================================================

Net charge: 0 (F: 0, A: 0, C: 0)
Current Box:  35.01900   0.00000   0.00000 [A]
               0.00000  43.93800   0.00000 [A]
               0.00000   0.00000  50.34000 [A]
Box-lengths:  35.01900  43.93800  50.34000 Box-angles:   90.00000  90.00000  90.00000 [degrees]
Volume: 77456.38714 [A^3]

Loadings per component:
----------------------------------------------------------------------------------------------------------------------------------------------------
Component 0 (argon), current number of integer/fractional/reaction molecules: 438/0/0, density: 375.11230 [kg/m^3]
	absolute adsorption:  36.50000 [mol/uc],         5.4239 [mol/kg],            216.6750 [mg/g]
	                                               121.5718 [cm^3 STP/g],        210.4674 [cm^3 STP/cm^3]
	excess adsorption:    36.50000 [mol/uc],         5.4239 [mol/kg],            216.6750 [mg/g]
	                                               121.5718 [cm^3 STP/g],        210.4674 [cm^3 STP/cm^3]
----------------------------------------------------------------------------------------------------------------------------------------------------
Degrees of freedom: 1314 0 1314 0
Number of Framework-atoms:   4032
Number of Adsorbates:         438 (438 integer, 0 fractional, 0 reaction)
Number of Cations:              0 (0 integer, 0 fractional, 0 reaction

Current total potential energy:          -1161671.1620336697 [K]
	Current Host-Host energy:                     0.0000000000 [K]
	Current Host-Adsorbate energy:         -1085255.5446849391 [K]
	Current Host-Cation energy:                   0.0000000000 [K]
	Current Adsorbate-Adsorbate energy:      -76415.6173487296 [K]
	Current Cation-Cation energy:                 0.0000000000 [K]
	Current Adsorbate-Cation energy:              0.0000000000 [K]



[Init] Current cycle: 2000 out of 100000
========================================================================================================

Net charge: 0 (F: 0, A: 0, C: 0)
Current Box:  35.01900   0.00000   0.00000 [A]
               0.00000  43.93800   0.00000 [A]
               0.00000   0.00000  50.34000 [A]
Box-lengths:  35.01900  43.93800  50.34000 Box-angles:   90.00000  90.00000  90.00000 [degrees]
Volume: 77456.38714 [A^3]

Loadings per component:
----------------------------------------------------------------------------------------------------------------------------------------------------
Component 0 (argon), current number of integer/fractional/reaction molecules: 458/0/0, density: 392.24072 [kg/m^3]
	absolute adsorption:  38.16667 [mol/uc],         5.6716 [mol/kg],            226.5689 [mg/g]
	                                               127.1230 [cm^3 STP/g],        220.0778 [cm^3 STP/cm^3]
	excess adsorption:    38.16667 [mol/uc],         5.6716 [mol/kg],            226.5689 [mg/g]
	                                               127.1230 [cm^3 STP/g],        220.0778 [cm^3 STP/cm^3]
----------------------------------------------------------------------------------------------------------------------------------------------------
Degrees of freedom: 1374 0 1374 0
Number of Framework-atoms:   4032
Number of Adsorbates:         458 (458 integer, 0 fractional, 0 reaction)
Number of Cations:              0 (0 integer, 0 fractional, 0 reaction

Current total potential energy:          -1209714.0187853202 [K]
	Current Host-Host energy:                     0.0000000000 [K]
	Current Host-Adsorbate energy:         -1130492.3316047448 [K]
	Current Host-Cation energy:                   0.0000000000 [K]
	Current Adsorbate-Adsorbate energy:      -79221.6871805659 [K]
	Current Cation-Cation energy:                 0.0000000000 [K]
	Current Adsorbate-Cation energy:              0.0000000000 [K]



[Init] Current cycle: 3000 out of 100000
========================================================================================================

Net charge: 0 (F: 0, A: 0, C: 0)
Current Box:  35.01900   0.00000   0.00000 [A]
               0.00000  43.93800   0.00000 [A]
               0.00000   0.00000  50.34000 [A]
Box-lengths:  35.01900  43.93800  50.34000 Box-angles:   90.00000  90.00000  90.00000 [degrees]
Volume: 77456.38714 [A^3]

Loadings per component:
----------------------------------------------------------------------------------------------------------------------------------------------------
Component 0 (argon), current number of integer/fractional/reaction molecules: 469/0/0, density: 401.66135 [kg/m^3]
	absolute adsorption:  39.08333 [mol/uc],         5.8078 [mol/kg],            232.0105 [mg/g]
	                                               130.1762 [cm^3 STP/g],        225.3635 [cm^3 STP/cm^3]
	excess adsorption:    39.08333 [mol/uc],         5.8078 [mol/kg],            232.0105 [mg/g]
	                                               130.1762 [cm^3 STP/g],        225.3635 [cm^3 STP/cm^3]
----------------------------------------------------------------------------------------------------------------------------------------------------
Degrees of freedom: 1407 0 1407 0
Number of Framework-atoms:   4032
Number of Adsorbates:         469 (469 integer, 0 fractional, 0 reaction)
Number of Cations:              0 (0 integer, 0 fractional, 0 reaction

Current total potential energy:          -1237873.9262747520 [K]
	Current Host-Host energy:                     0.0000000000 [K]
	Current Host-Adsorbate energy:         -1157142.0122836567 [K]
	Current Host-Cation energy:                   0.0000000000 [K]
	Current Adsorbate-Adsorbate energy:      -80731.9139910857 [K]
	Current Cation-Cation energy:                 0.0000000000 [K]
	Current Adsorbate-Cation energy:              0.0000000000 [K]



[Init] Current cycle: 4000 out of 100000
========================================================================================================

Net charge: 0 (F: 0, A: 0, C: 0)
Current Box:  35.01900   0.00000   0.00000 [A]
               0.00000  43.93800   0.00000 [A]
               0.00000   0.00000  50.34000 [A]
Box-lengths:  35.01900  43.93800  50.34000 Box-angles:   90.00000  90.00000  90.00000 [degrees]
Volume: 77456.38714 [A^3]

Loadings per component:
----------------------------------------------------------------------------------------------------------------------------------------------------
Component 0 (argon), current number of integer/fractional/reaction molecules: 475/0/0, density: 406.79987 [kg/m^3]
	absolute adsorption:  39.58333 [mol/uc],         5.8821 [mol/kg],            234.9786 [mg/g]
	                                               131.8415 [cm^3 STP/g],        228.2466 [cm^3 STP/cm^3]
	excess adsorption:    39.58333 [mol/uc],         5.8821 [mol/kg],            234.9786 [mg/g]
	                                               131.8415 [cm^3 STP/g],        228.2466 [cm^3 STP/cm^3]
----------------------------------------------------------------------------------------------------------------------------------------------------
Degrees of freedom: 1425 0 1425 0
Number of Framework-atoms:   4032
Number of Adsorbates:         475 (475 integer, 0 fractional, 0 reaction)
Number of Cations:              0 (0 integer, 0 fractional, 0 reaction

Current total potential energy:          -1250348.9810224199 [K]
	Current Host-Host energy:                     0.0000000000 [K]
	Current Host-Adsorbate energy:         -1164218.2661029280 [K]
	Current Host-Cation energy:                   0.0000000000 [K]
	Current Adsorbate-Adsorbate energy:      -86130.7149194856 [K]
	Current Cation-Cation energy:                 0.0000000000 [K]
	Current Adsorbate-Cation energy:              0.0000000000 [K]



[Init] Current cycle: 5000 out of 100000
========================================================================================================

Net charge: 0 (F: 0, A: 0, C: 0)
Current Box:  35.01900   0.00000   0.00000 [A]
               0.00000  43.93800   0.00000 [A]
               0.00000   0.00000  50.34000 [A]
Box-lengths:  35.01900  43.93800  50.34000 Box-angles:   90.00000  90.00000  90.00000 [degrees]
Volume: 77456.38714 [A^3]

Loadings per component:
----------------------------------------------------------------------------------------------------------------------------------------------------
Component 0 (argon), current number of integer/fractional/reaction molecules: 476/0/0, density: 407.65629 [kg/m^3]
	absolute adsorption:  39.66667 [mol/uc],         5.8945 [mol/kg],            235.4733 [mg/g]
	                                               132.1191 [cm^3 STP/g],        228.7271 [cm^3 STP/cm^3]
	excess adsorption:    39.66667 [mol/uc],         5.8945 [mol/kg],            235.4733 [mg/g]
	                                               132.1191 [cm^3 STP/g],        228.7271 [cm^3 STP/cm^3]
----------------------------------------------------------------------------------------------------------------------------------------------------
Degrees of freedom: 1428 0 1428 0
Number of Framework-atoms:   4032
Number of Adsorbates:         476 (476 integer, 0 fractional, 0 reaction)
Number of Cations:              0 (0 integer, 0 fractional, 0 reaction

Current total potential energy:          -1255221.5160012853 [K]
	Current Host-Host energy:                     0.0000000000 [K]
	Current Host-Adsorbate energy:         -1169224.2668625875 [K]
	Current Host-Cation energy:                   0.0000000000 [K]
	Current Adsorbate-Adsorbate energy:      -85997.2491386856 [K]
	Current Cation-Cation energy:                 0.0000000000 [K]
	Current Adsorbate-Cation energy:              0.0000000000 [K]



[Init] Current cycle: 6000 out of 100000
========================================================================================================

Net charge: 0 (F: 0, A: 0, C: 0)
Current Box:  35.01900   0.00000   0.00000 [A]
               0.00000  43.93800   0.00000 [A]
               0.00000   0.00000  50.34000 [A]
Box-lengths:  35.01900  43.93800  50.34000 Box-angles:   90.00000  90.00000  90.00000 [degrees]
Volume: 77456.38714 [A^3]

Loadings per component:
----------------------------------------------------------------------------------------------------------------------------------------------------
Component 0 (argon), current number of integer/fractional/reaction molecules: 479/0/0, density: 410.22556 [kg/m^3]
	absolute adsorption:  39.91667 [mol/uc],         5.9316 [mol/kg],            236.9574 [mg/g]
	                                               132.9518 [cm^3 STP/g],        230.1687 [cm^3 STP/cm^3]
	excess adsorption:    39.91667 [mol/uc],         5.9316 [mol/kg],            236.9574 [mg/g]
	                                               132.9518 [cm^3 STP/g],        230.1687 [cm^3 STP/cm^3]
----------------------------------------------------------------------------------------------------------------------------------------------------
Degrees of freedom: 1437 0 1437 0
Number of Framework-atoms:   4032
Number of Adsorbates:         479 (479 integer, 0 fractional, 0 reaction)
Number of Cations:              0 (0 integer, 0 fractional, 0 reaction

Current total potential energy:          -1255177.9863364003 [K]
	Current Host-Host energy:                     0.0000000000 [K]
	Current Host-Adsorbate energy:         -1172328.2873826160 [K]
	Current Host-Cation energy:                   0.0000000000 [K]
	Current Adsorbate-Adsorbate energy:      -82849.6989537655 [K]
	Current Cation-Cation energy:                 0.0000000000 [K]
	Current Adsorbate-Cation energy:              0.0000000000 [K]



[Init] Current cycle: 7000 out of 100000
========================================================================================================

Net charge: 0 (F: 0, A: 0, C: 0)
Current Box:  35.01900   0.00000   0.00000 [A]
               0.00000  43.93800   0.00000 [A]
               0.00000   0.00000  50.34000 [A]
Box-lengths:  35.01900  43.93800  50.34000 Box-angles:   90.00000  90.00000  90.00000 [degrees]
Volume: 77456.38714 [A^3]

Loadings per component:
----------------------------------------------------------------------------------------------------------------------------------------------------
Component 0 (argon), current number of integer/fractional/reaction molecules: 484/0/0, density: 414.50766 [kg/m^3]
	absolute adsorption:  40.33333 [mol/uc],         5.9936 [mol/kg],            239.4309 [mg/g]
	                                               134.3396 [cm^3 STP/g],        232.5713 [cm^3 STP/cm^3]
	excess adsorption:    40.33333 [mol/uc],         5.9936 [mol/kg],            239.4309 [mg/g]
	                                               134.3396 [cm^3 STP/g],        232.5713 [cm^3 STP/cm^3]
----------------------------------------------------------------------------------------------------------------------------------------------------
Degrees of freedom: 1452 0 1452 0
Number of Framework-atoms:   4032
Number of Adsorbates:         484 (484 integer, 0 fractional, 0 reaction)
Number of Cations:              0 (0 integer, 0 fractional, 0 reaction

Current total potential energy:          -1269687.6860954517 [K]
	Current Host-Host energy:                     0.0000000000 [K]
	Current Host-Adsorbate energy:         -1188463.7802586372 [K]
	Current Host-Cation energy:                   0.0000000000 [K]
	Current Adsorbate-Adsorbate energy:      -81223.9058368187 [K]
	Current Cation-Cation energy:                 0.0000000000 [K]
	Current Adsorbate-Cation energy:              0.0000000000 [K]



[Init] Current cycle: 8000 out of 100000
========================================================================================================

Net charge: 0 (F: 0, A: 0, C: 0)
Current Box:  35.01900   0.00000   0.00000 [A]
               0.00000  43.93800   0.00000 [A]
               0.00000   0.00000  50.34000 [A]
Box-lengths:  35.01900  43.93800  50.34000 Box-angles:   90.00000  90.00000  90.00000 [degrees]
Volume: 77456.38714 [A^3]

Loadings per component:
----------------------------------------------------------------------------------------------------------------------------------------------------
Component 0 (argon), current number of integer/fractional/reaction molecules: 487/0/0, density: 417.07692 [kg/m^3]
	absolute adsorption:  40.58333 [mol/uc],         6.0307 [mol/kg],            240.9149 [mg/g]
	                                               135.1723 [cm^3 STP/g],        234.0128 [cm^3 STP/cm^3]
	excess adsorption:    40.58333 [mol/uc],         6.0307 [mol/kg],            240.9149 [mg/g]
	                                               135.1723 [cm^3 STP/g],        234.0128 [cm^3 STP/cm^3]
----------------------------------------------------------------------------------------------------------------------------------------------------
Degrees of freedom: 1461 0 1461 0
Number of Framework-atoms:   4032
Number of Adsorbates:         487 (487 integer, 0 fractional, 0 reaction)
Number of Cations:              0 (0 integer, 0 fractional, 0 reaction

Current total potential energy:          -1273950.3544419382 [K]
	Current Host-Host energy:                     0.0000000000 [K]
	Current Host-Adsorbate energy:         -1193622.9947652435 [K]
	Current Host-Cation energy:                   0.0000000000 [K]
	Current Adsorbate-Adsorbate energy:      -80327.3596767080 [K]
	Current Cation-Cation energy:                 0.0000000000 [K]
	Current Adsorbate-Cation energy:              0.0000000000 [K]



[Init] Current cycle: 9000 out of 100000
========================================================================================================

Net charge: 0 (F: 0, A: 0, C: 0)
Current Box:  35.01900   0.00000   0.00000 [A]
               0.00000  43.93800   0.00000 [A]
               0.00000   0.00000  50.34000 [A]
Box-lengths:  35.01900  43.93800  50.34000 Box-angles:   90.00000  90.00000  90.00000 [degrees]
Volume: 77456.38714 [A^3]

Loadings per component:
----------------------------------------------------------------------------------------------------------------------------------------------------
Component 0 (argon), current number of integer/fractional/reaction molecules: 489/0/0, density: 418.78976 [kg/m^3]
	absolute adsorption:  40.75000 [mol/uc],         6.0555 [mol/kg],            241.9043 [mg/g]
	                                               135.7274 [cm^3 STP/g],        234.9738 [cm^3 STP/cm^3]
	excess adsorption:    40.75000 [mol/uc],         6.0555 [mol/kg],            241.9043 [mg/g]
	                                               135.7274 [cm^3 STP/g],        234.9738 [cm^3 STP/cm^3]
----------------------------------------------------------------------------------------------------------------------------------------------------
Degrees of freedom: 1467 0 1467 0
Number of Framework-atoms:   4032
Number of Adsorbates:         489 (489 integer, 0 fractional, 0 reaction)
Number of Cations:              0 (0 integer, 0 fractional, 0 reaction

Current total potential energy:          -1283080.2193003863 [K]
	Current Host-Host energy:                     0.0000000000 [K]
	Current Host-Adsorbate energy:         -1199071.0892079014 [K]
	Current Host-Cation energy:                   0.0000000000 [K]
	Current Adsorbate-Adsorbate energy:      -84009.1300924961 [K]
	Current Cation-Cation energy:                 0.0000000000 [K]
	Current Adsorbate-Cation energy:              0.0000000000 [K]



[Init] Current cycle: 10000 out of 100000
========================================================================================================

Net charge: 0 (F: 0, A: 0, C: 0)
Current Box:  35.01900   0.00000   0.00000 [A]
               0.00000  43.93800   0.00000 [A]
               0.00000   0.00000  50.34000 [A]
Box-lengths:  35.01900  43.93800  50.34000 Box-angles:   90.00000  90.00000  90.00000 [degrees]
Volume: 77456.38714 [A^3]

Loadings per component:
----------------------------------------------------------------------------------------------------------------------------------------------------
Component 0 (argon), current number of integer/fractional/reaction molecules: 490/0/0, density: 419.64618 [kg/m^3]
	absolute adsorption:  40.83333 [mol/uc],         6.0679 [mol/kg],            242.3990 [mg/g]
	                                               136.0049 [cm^3 STP/g],        235.4544 [cm^3 STP/cm^3]
	excess adsorption:    40.83333 [mol/uc],         6.0679 [mol/kg],            242.3990 [mg/g]
	                                               136.0049 [cm^3 STP/g],        235.4544 [cm^3 STP/cm^3]
----------------------------------------------------------------------------------------------------------------------------------------------------
Degrees of freedom: 1470 0 1470 0
Number of Framework-atoms:   4032
Number of Adsorbates:         490 (490 integer, 0 fractional, 0 reaction)
Number of Cations:              0 (0 integer, 0 fractional, 0 reaction

Current total potential energy:          -1285144.2435842317 [K]
	Current Host-Host energy:                     0.0000000000 [K]
	Current Host-Adsorbate energy:         -1201280.5354738564 [K]
	Current Host-Cation energy:                   0.0000000000 [K]
	Current Adsorbate-Adsorbate energy:      -83863.7081103647 [K]
	Current Cation-Cation energy:                 0.0000000000 [K]
	Current Adsorbate-Cation energy:              0.0000000000 [K]



[Init] Current cycle: 11000 out of 100000
========================================================================================================

Net charge: 0 (F: 0, A: 0, C: 0)
Current Box:  35.01900   0.00000   0.00000 [A]
               0.00000  43.93800   0.00000 [A]
               0.00000   0.00000  50.34000 [A]
Box-lengths:  35.01900  43.93800  50.34000 Box-angles:   90.00000  90.00000  90.00000 [degrees]
Volume: 77456.38714 [A^3]

Loadings per component:
----------------------------------------------------------------------------------------------------------------------------------------------------
Component 0 (argon), current number of integer/fractional/reaction molecules: 491/0/0, density: 420.50261 [kg/m^3]
	absolute adsorption:  40.91667 [mol/uc],         6.0802 [mol/kg],            242.8937 [mg/g]
	                                               136.2825 [cm^3 STP/g],        235.9349 [cm^3 STP/cm^3]
	excess adsorption:    40.91667 [mol/uc],         6.0802 [mol/kg],            242.8937 [mg/g]
	                                               136.2825 [cm^3 STP/g],        235.9349 [cm^3 STP/cm^3]
----------------------------------------------------------------------------------------------------------------------------------------------------
Degrees of freedom: 1473 0 1473 0
Number of Framework-atoms:   4032
Number of Adsorbates:         491 (491 integer, 0 fractional, 0 reaction)
Number of Cations:              0 (0 integer, 0 fractional, 0 reaction

Current total potential energy:          -1284085.7452684448 [K]
	Current Host-Host energy:                     0.0000000000 [K]
	Current Host-Adsorbate energy:         -1200809.6617933705 [K]
	Current Host-Cation energy:                   0.0000000000 [K]
	Current Adsorbate-Adsorbate energy:      -83276.0834750646 [K]
	Current Cation-Cation energy:                 0.0000000000 [K]
	Current Adsorbate-Cation energy:              0.0000000000 [K]



[Init] Current cycle: 12000 out of 100000
========================================================================================================

Net charge: 0 (F: 0, A: 0, C: 0)
Current Box:  35.01900   0.00000   0.00000 [A]
               0.00000  43.93800   0.00000 [A]
               0.00000   0.00000  50.34000 [A]
Box-lengths:  35.01900  43.93800  50.34000 Box-angles:   90.00000  90.00000  90.00000 [degrees]
Volume: 77456.38714 [A^3]

Loadings per component:
----------------------------------------------------------------------------------------------------------------------------------------------------
Component 0 (argon), current number of integer/fractional/reaction molecules: 494/0/0, density: 423.07187 [kg/m^3]
	absolute adsorption:  41.16667 [mol/uc],         6.1174 [mol/kg],            244.3778 [mg/g]
	                                               137.1152 [cm^3 STP/g],        237.3764 [cm^3 STP/cm^3]
	excess adsorption:    41.16667 [mol/uc],         6.1174 [mol/kg],            244.3778 [mg/g]
	                                               137.1152 [cm^3 STP/g],        237.3764 [cm^3 STP/cm^3]
----------------------------------------------------------------------------------------------------------------------------------------------------
Degrees of freedom: 1482 0 1482 0
Number of Framework-atoms:   4032
Number of Adsorbates:         494 (494 integer, 0 fractional, 0 reaction)
Number of Cations:              0 (0 integer, 0 fractional, 0 reaction

Current total potential energy:          -1289761.1882460024 [K]
	Current Host-Host energy:                     0.0000000000 [K]
	Current Host-Adsorbate energy:         -1209095.6887079766 [K]
	Current Host-Cation energy:                   0.0000000000 [K]
	Current Adsorbate-Adsorbate energy:      -80665.4995380063 [K]
	Current Cation-Cation energy:                 0.0000000000 [K]
	Current Adsorbate-Cation energy:              0.0000000000 [K]



[Init] Current cycle: 13000 out of 100000
========================================================================================================

Net charge: 0 (F: 0, A: 0, C: 0)
Current Box:  35.01900   0.00000   0.00000 [A]
               0.00000  43.93800   0.00000 [A]
               0.00000   0.00000  50.34000 [A]
Box-lengths:  35.01900  43.93800  50.34000 Box-angles:   90.00000  90.00000  90.00000 [degrees]
Volume: 77456.38714 [A^3]

Loadings per component:
----------------------------------------------------------------------------------------------------------------------------------------------------
Component 0 (argon), current number of integer/fractional/reaction molecules: 497/0/0, density: 425.64113 [kg/m^3]
	absolute adsorption:  41.41667 [mol/uc],         6.1545 [mol/kg],            245.8619 [mg/g]
	                                               137.9479 [cm^3 STP/g],        238.8180 [cm^3 STP/cm^3]
	excess adsorption:    41.41667 [mol/uc],         6.1545 [mol/kg],            245.8619 [mg/g]
	                                               137.9479 [cm^3 STP/g],        238.8180 [cm^3 STP/cm^3]
----------------------------------------------------------------------------------------------------------------------------------------------------
Degrees of freedom: 1491 0 1491 0
Number of Framework-atoms:   4032
Number of Adsorbates:         497 (497 integer, 0 fractional, 0 reaction)
Number of Cations:              0 (0 integer, 0 fractional, 0 reaction

Current total potential energy:          -1290340.2637222903 [K]
	Current Host-Host energy:                     0.0000000000 [K]
	Current Host-Adsorbate energy:         -1211501.1756098664 [K]
	Current Host-Cation energy:                   0.0000000000 [K]
	Current Adsorbate-Adsorbate energy:      -78839.0881124085 [K]
	Current Cation-Cation energy:                 0.0000000000 [K]
	Current Adsorbate-Cation energy:              0.0000000000 [K]



[Init] Current cycle: 14000 out of 100000
========================================================================================================

Net charge: 0 (F: 0, A: 0, C: 0)
Current Box:  35.01900   0.00000   0.00000 [A]
               0.00000  43.93800   0.00000 [A]
               0.00000   0.00000  50.34000 [A]
Box-lengths:  35.01900  43.93800  50.34000 Box-angles:   90.00000  90.00000  90.00000 [degrees]
Volume: 77456.38714 [A^3]

Loadings per component:
----------------------------------------------------------------------------------------------------------------------------------------------------
Component 0 (argon), current number of integer/fractional/reaction molecules: 498/0/0, density: 426.49755 [kg/m^3]
	absolute adsorption:  41.50000 [mol/uc],         6.1669 [mol/kg],            246.3565 [mg/g]
	                                               138.2254 [cm^3 STP/g],        239.2985 [cm^3 STP/cm^3]
	excess adsorption:    41.50000 [mol/uc],         6.1669 [mol/kg],            246.3565 [mg/g]
	                                               138.2254 [cm^3 STP/g],        239.2985 [cm^3 STP/cm^3]
----------------------------------------------------------------------------------------------------------------------------------------------------
Degrees of freedom: 1494 0 1494 0
Number of Framework-atoms:   4032
Number of Adsorbates:         498 (498 integer, 0 fractional, 0 reaction)
Number of Cations:              0 (0 integer, 0 fractional, 0 reaction

Current total potential energy:          -1295649.6483831878 [K]
	Current Host-Host energy:                     0.0000000000 [K]
	Current Host-Adsorbate energy:         -1212804.3996630351 [K]
	Current Host-Cation energy:                   0.0000000000 [K]
	Current Adsorbate-Adsorbate energy:      -82845.2487201081 [K]
	Current Cation-Cation energy:                 0.0000000000 [K]
	Current Adsorbate-Cation energy:              0.0000000000 [K]



[Init] Current cycle: 15000 out of 100000
========================================================================================================

Net charge: 0 (F: 0, A: 0, C: 0)
Current Box:  35.01900   0.00000   0.00000 [A]
               0.00000  43.93800   0.00000 [A]
               0.00000   0.00000  50.34000 [A]
Box-lengths:  35.01900  43.93800  50.34000 Box-angles:   90.00000  90.00000  90.00000 [degrees]
Volume: 77456.38714 [A^3]

Loadings per component:
----------------------------------------------------------------------------------------------------------------------------------------------------
Component 0 (argon), current number of integer/fractional/reaction molecules: 500/0/0, density: 428.21039 [kg/m^3]
	absolute adsorption:  41.66667 [mol/uc],         6.1917 [mol/kg],            247.3459 [mg/g]
	                                               138.7806 [cm^3 STP/g],        240.2596 [cm^3 STP/cm^3]
	excess adsorption:    41.66667 [mol/uc],         6.1917 [mol/kg],            247.3459 [mg/g]
	                                               138.7806 [cm^3 STP/g],        240.2596 [cm^3 STP/cm^3]
----------------------------------------------------------------------------------------------------------------------------------------------------
Degrees of freedom: 1500 0 1500 0
Number of Framework-atoms:   4032
Number of Adsorbates:         500 (500 integer, 0 fractional, 0 reaction)
Number of Cations:              0 (0 integer, 0 fractional, 0 reaction

Current total potential energy:          -1302904.4176306769 [K]
	Current Host-Host energy:                     0.0000000000 [K]
	Current Host-Adsorbate energy:         -1218720.8645533093 [K]
	Current Host-Cation energy:                   0.0000000000 [K]
	Current Adsorbate-Adsorbate energy:      -84183.5530773273 [K]
	Current Cation-Cation energy:                 0.0000000000 [K]
	Current Adsorbate-Cation energy:              0.0000000000 [K]



[Init] Current cycle: 16000 out of 100000
========================================================================================================

Net charge: 0 (F: 0, A: 0, C: 0)
Current Box:  35.01900   0.00000   0.00000 [A]
               0.00000  43.93800   0.00000 [A]
               0.00000   0.00000  50.34000 [A]
Box-lengths:  35.01900  43.93800  50.34000 Box-angles:   90.00000  90.00000  90.00000 [degrees]
Volume: 77456.38714 [A^3]

Loadings per component:
----------------------------------------------------------------------------------------------------------------------------------------------------
Component 0 (argon), current number of integer/fractional/reaction molecules: 500/0/0, density: 428.21039 [kg/m^3]
	absolute adsorption:  41.66667 [mol/uc],         6.1917 [mol/kg],            247.3459 [mg/g]
	                                               138.7806 [cm^3 STP/g],        240.2596 [cm^3 STP/cm^3]
	excess adsorption:    41.66667 [mol/uc],         6.1917 [mol/kg],            247.3459 [mg/g]
	                                               138.7806 [cm^3 STP/g],        240.2596 [cm^3 STP/cm^3]
----------------------------------------------------------------------------------------------------------------------------------------------------
Degrees of freedom: 1500 0 1500 0
Number of Framework-atoms:   4032
Number of Adsorbates:         500 (500 integer, 0 fractional, 0 reaction)
Number of Cations:              0 (0 integer, 0 fractional, 0 reaction

Current total potential energy:          -1299383.1809753422 [K]
	Current Host-Host energy:                     0.0000000000 [K]
	Current Host-Adsorbate energy:         -1217942.2898266150 [K]
	Current Host-Cation energy:                   0.0000000000 [K]
	Current Adsorbate-Adsorbate energy:      -81440.8911486820 [K]
	Current Cation-Cation energy:                 0.0000000000 [K]
	Current Adsorbate-Cation energy:              0.0000000000 [K]



[Init] Current cycle: 17000 out of 100000
========================================================================================================

Net charge: 0 (F: 0, A: 0, C: 0)
Current Box:  35.01900   0.00000   0.00000 [A]
               0.00000  43.93800   0.00000 [A]
               0.00000   0.00000  50.34000 [A]
Box-lengths:  35.01900  43.93800  50.34000 Box-angles:   90.00000  90.00000  90.00000 [degrees]
Volume: 77456.38714 [A^3]

Loadings per component:
----------------------------------------------------------------------------------------------------------------------------------------------------
Component 0 (argon), current number of integer/fractional/reaction molecules: 502/0/0, density: 429.92323 [kg/m^3]
	absolute adsorption:  41.83333 [mol/uc],         6.2165 [mol/kg],            248.3353 [mg/g]
	                                               139.3357 [cm^3 STP/g],        241.2206 [cm^3 STP/cm^3]
	excess adsorption:    41.83333 [mol/uc],         6.2165 [mol/kg],            248.3353 [mg/g]
	                                               139.3357 [cm^3 STP/g],        241.2206 [cm^3 STP/cm^3]
----------------------------------------------------------------------------------------------------------------------------------------------------
Degrees of freedom: 1506 0 1506 0
Number of Framework-atoms:   4032
Number of Adsorbates:         502 (502 integer, 0 fractional, 0 reaction)
Number of Cations:              0 (0 integer, 0 fractional, 0 reaction

Current total potential energy:          -1302480.8255280480 [K]
	Current Host-Host energy:                     0.0000000000 [K]
	Current Host-Adsorbate energy:         -1222423.7881557345 [K]
	Current Host-Cation energy:                   0.0000000000 [K]
	Current Adsorbate-Adsorbate energy:      -80057.0373722505 [K]
	Current Cation-Cation energy:                 0.0000000000 [K]
	Current Adsorbate-Cation energy:              0.0000000000 [K]



[Init] Current cycle: 18000 out of 100000
========================================================================================================

Net charge: 0 (F: 0, A: 0, C: 0)
Current Box:  35.01900   0.00000   0.00000 [A]
               0.00000  43.93800   0.00000 [A]
               0.00000   0.00000  50.34000 [A]
Box-lengths:  35.01900  43.93800  50.34000 Box-angles:   90.00000  90.00000  90.00000 [degrees]
Volume: 77456.38714 [A^3]

Loadings per component:
----------------------------------------------------------------------------------------------------------------------------------------------------
Component 0 (argon), current number of integer/fractional/reaction molecules: 503/0/0, density: 430.77966 [kg/m^3]
	absolute adsorption:  41.91667 [mol/uc],         6.2288 [mol/kg],            248.8300 [mg/g]
	                                               139.6132 [cm^3 STP/g],        241.7011 [cm^3 STP/cm^3]
	excess adsorption:    41.91667 [mol/uc],         6.2288 [mol/kg],            248.8300 [mg/g]
	                                               139.6132 [cm^3 STP/g],        241.7011 [cm^3 STP/cm^3]
----------------------------------------------------------------------------------------------------------------------------------------------------
Degrees of freedom: 1509 0 1509 0
Number of Framework-atoms:   4032
Number of Adsorbates:         503 (503 integer, 0 fractional, 0 reaction)
Number of Cations:              0 (0 integer, 0 fractional, 0 reaction

Current total potential energy:          -1303578.9128500614 [K]
	Current Host-Host energy:                     0.0000000000 [K]
	Current Host-Adsorbate energy:         -1224006.5061769488 [K]
	Current Host-Cation energy:                   0.0000000000 [K]
	Current Adsorbate-Adsorbate energy:      -79572.4066730448 [K]
	Current Cation-Cation energy:                 0.0000000000 [K]
	Current Adsorbate-Cation energy:              0.0000000000 [K]



[Init] Current cycle: 19000 out of 100000
========================================================================================================

Net charge: 0 (F: 0, A: 0, C: 0)
Current Box:  35.01900   0.00000   0.00000 [A]
               0.00000  43.93800   0.00000 [A]
               0.00000   0.00000  50.34000 [A]
Box-lengths:  35.01900  43.93800  50.34000 Box-angles:   90.00000  90.00000  90.00000 [degrees]
Volume: 77456.38714 [A^3]

Loadings per component:
----------------------------------------------------------------------------------------------------------------------------------------------------
Component 0 (argon), current number of integer/fractional/reaction molecules: 503/0/0, density: 430.77966 [kg/m^3]
	absolute adsorption:  41.91667 [mol/uc],         6.2288 [mol/kg],            248.8300 [mg/g]
	                                               139.6132 [cm^3 STP/g],        241.7011 [cm^3 STP/cm^3]
	excess adsorption:    41.91667 [mol/uc],         6.2288 [mol/kg],            248.8300 [mg/g]
	                                               139.6132 [cm^3 STP/g],        241.7011 [cm^3 STP/cm^3]
----------------------------------------------------------------------------------------------------------------------------------------------------
Degrees of freedom: 1509 0 1509 0
Number of Framework-atoms:   4032
Number of Adsorbates:         503 (503 integer, 0 fractional, 0 reaction)
Number of Cations:              0 (0 integer, 0 fractional, 0 reaction

Current total potential energy:          -1307703.3330496887 [K]
	Current Host-Host energy:                     0.0000000000 [K]
	Current Host-Adsorbate energy:         -1225725.1871623802 [K]
	Current Host-Cation energy:                   0.0000000000 [K]
	Current Adsorbate-Adsorbate energy:      -81978.1458872599 [K]
	Current Cation-Cation energy:                 0.0000000000 [K]
	Current Adsorbate-Cation energy:              0.0000000000 [K]



[Init] Current cycle: 20000 out of 100000
========================================================================================================

Net charge: 0 (F: 0, A: 0, C: 0)
Current Box:  35.01900   0.00000   0.00000 [A]
               0.00000  43.93800   0.00000 [A]
               0.00000   0.00000  50.34000 [A]
Box-lengths:  35.01900  43.93800  50.34000 Box-angles:   90.00000  90.00000  90.00000 [degrees]
Volume: 77456.38714 [A^3]

Loadings per component:
----------------------------------------------------------------------------------------------------------------------------------------------------
Component 0 (argon), current number of integer/fractional/reaction molecules: 503/0/0, density: 430.77966 [kg/m^3]
	absolute adsorption:  41.91667 [mol/uc],         6.2288 [mol/kg],            248.8300 [mg/g]
	                                               139.6132 [cm^3 STP/g],        241.7011 [cm^3 STP/cm^3]
	excess adsorption:    41.91667 [mol/uc],         6.2288 [mol/kg],            248.8300 [mg/g]
	                                               139.6132 [cm^3 STP/g],        241.7011 [cm^3 STP/cm^3]
----------------------------------------------------------------------------------------------------------------------------------------------------
Degrees of freedom: 1509 0 1509 0
Number of Framework-atoms:   4032
Number of Adsorbates:         503 (503 integer, 0 fractional, 0 reaction)
Number of Cations:              0 (0 integer, 0 fractional, 0 reaction

Current total potential energy:          -1305190.8137805292 [K]
	Current Host-Host energy:                     0.0000000000 [K]
	Current Host-Adsorbate energy:         -1226357.7433893972 [K]
	Current Host-Cation energy:                   0.0000000000 [K]
	Current Adsorbate-Adsorbate energy:      -78833.0703911077 [K]
	Current Cation-Cation energy:                 0.0000000000 [K]
	Current Adsorbate-Cation energy:              0.0000000000 [K]



[Init] Current cycle: 21000 out of 100000
========================================================================================================

Net charge: 0 (F: 0, A: 0, C: 0)
Current Box:  35.01900   0.00000   0.00000 [A]
               0.00000  43.93800   0.00000 [A]
               0.00000   0.00000  50.34000 [A]
Box-lengths:  35.01900  43.93800  50.34000 Box-angles:   90.00000  90.00000  90.00000 [degrees]
Volume: 77456.38714 [A^3]

Loadings per component:
----------------------------------------------------------------------------------------------------------------------------------------------------
Component 0 (argon), current number of integer/fractional/reaction molecules: 505/0/0, density: 432.49250 [kg/m^3]
	absolute adsorption:  42.08333 [mol/uc],         6.2536 [mol/kg],            249.8194 [mg/g]
	                                               140.1684 [cm^3 STP/g],        242.6622 [cm^3 STP/cm^3]
	excess adsorption:    42.08333 [mol/uc],         6.2536 [mol/kg],            249.8194 [mg/g]
	                                               140.1684 [cm^3 STP/g],        242.6622 [cm^3 STP/cm^3]
----------------------------------------------------------------------------------------------------------------------------------------------------
Degrees of freedom: 1515 0 1515 0
Number of Framework-atoms:   4032
Number of Adsorbates:         505 (505 integer, 0 fractional, 0 reaction)
Number of Cations:              0 (0 integer, 0 fractional, 0 reaction

Current total potential energy:          -1310126.3023140237 [K]
	Current Host-Host energy:                     0.0000000000 [K]
	Current Host-Adsorbate energy:         -1228812.8412670279 [K]
	Current Host-Cation energy:                   0.0000000000 [K]
	Current Adsorbate-Adsorbate energy:      -81313.4610469527 [K]
	Current Cation-Cation energy:                 0.0000000000 [K]
	Current Adsorbate-Cation energy:              0.0000000000 [K]



[Init] Current cycle: 22000 out of 100000
========================================================================================================

Net charge: 0 (F: 0, A: 0, C: 0)
Current Box:  35.01900   0.00000   0.00000 [A]
               0.00000  43.93800   0.00000 [A]
               0.00000   0.00000  50.34000 [A]
Box-lengths:  35.01900  43.93800  50.34000 Box-angles:   90.00000  90.00000  90.00000 [degrees]
Volume: 77456.38714 [A^3]

Loadings per component:
----------------------------------------------------------------------------------------------------------------------------------------------------
Component 0 (argon), current number of integer/fractional/reaction molecules: 505/0/0, density: 432.49250 [kg/m^3]
	absolute adsorption:  42.08333 [mol/uc],         6.2536 [mol/kg],            249.8194 [mg/g]
	                                               140.1684 [cm^3 STP/g],        242.6622 [cm^3 STP/cm^3]
	excess adsorption:    42.08333 [mol/uc],         6.2536 [mol/kg],            249.8194 [mg/g]
	                                               140.1684 [cm^3 STP/g],        242.6622 [cm^3 STP/cm^3]
----------------------------------------------------------------------------------------------------------------------------------------------------
Degrees of freedom: 1515 0 1515 0
Number of Framework-atoms:   4032
Number of Adsorbates:         505 (505 integer, 0 fractional, 0 reaction)
Number of Cations:              0 (0 integer, 0 fractional, 0 reaction

Current total potential energy:          -1310344.7640999092 [K]
	Current Host-Host energy:                     0.0000000000 [K]
	Current Host-Adsorbate energy:         -1227183.2072982187 [K]
	Current Host-Cation energy:                   0.0000000000 [K]
	Current Adsorbate-Adsorbate energy:      -83161.5568016626 [K]
[...]
	Block[ 2]            0.00000 [K]
	Block[ 3]            0.00000 [K]
	Block[ 4]            0.00000 [K]
	------------------------------------------------------------------------------
	Average              0.00000 [K] +/-            0.00000 [K]

Average Cation Bend angle inversion energy:
===========================================
	Block[ 0]            0.00000 [K]
	Block[ 1]            0.00000 [K]
	Block[ 2]            0.00000 [K]
	Block[ 3]            0.00000 [K]
	Block[ 4]            0.00000 [K]
	------------------------------------------------------------------------------
	Average              0.00000 [K] +/-            0.00000 [K]

Average Cation Torsion energy:
==============================
	Block[ 0]            0.00000 [K]
	Block[ 1]            0.00000 [K]
	Block[ 2]            0.00000 [K]
	Block[ 3]            0.00000 [K]
	Block[ 4]            0.00000 [K]
	------------------------------------------------------------------------------
	Average              0.00000 [K] +/-            0.00000 [K]

Average Cation Improper Torsion energy:
=======================================
	Block[ 0]            0.00000 [K]
	Block[ 1]            0.00000 [K]
	Block[ 2]            0.00000 [K]
	Block[ 3]            0.00000 [K]
	Block[ 4]            0.00000 [K]
	------------------------------------------------------------------------------
	Average              0.00000 [K] +/-            0.00000 [K]

Average Cation Bond-Bond cross term energy:
=================================================
	Block[ 0]            0.00000 [K]
	Block[ 1]            0.00000 [K]
	Block[ 2]            0.00000 [K]
	Block[ 3]            0.00000 [K]
	Block[ 4]            0.00000 [K]
	------------------------------------------------------------------------------
	Average              0.00000 [K] +/-            0.00000 [K]

Average Cation Bend-Bend cross term energy:
===========================================
	Block[ 0]            0.00000 [K]
	Block[ 1]            0.00000 [K]
	Block[ 2]            0.00000 [K]
	Block[ 3]            0.00000 [K]
	Block[ 4]            0.00000 [K]
	------------------------------------------------------------------------------
	Average              0.00000 [K] +/-            0.00000 [K]

Average Cation Bond-Bend cross term energy:
==============================================
	Block[ 0]            0.00000 [K]
	Block[ 1]            0.00000 [K]
	Block[ 2]            0.00000 [K]
	Block[ 3]            0.00000 [K]
	Block[ 4]            0.00000 [K]
	------------------------------------------------------------------------------
	Average              0.00000 [K] +/-            0.00000 [K]

Average Cation Bond-Torsion cross term energy:
==============================================
	Block[ 0]            0.00000 [K]
	Block[ 1]            0.00000 [K]
	Block[ 2]            0.00000 [K]
	Block[ 3]            0.00000 [K]
	Block[ 4]            0.00000 [K]
	------------------------------------------------------------------------------
	Average              0.00000 [K] +/-            0.00000 [K]

Average Cation Bend-Torsion cross term energy:
==============================================
	Block[ 0]            0.00000 [K]
	Block[ 1]            0.00000 [K]
	Block[ 2]            0.00000 [K]
	Block[ 3]            0.00000 [K]
	Block[ 4]            0.00000 [K]
	------------------------------------------------------------------------------
	Average              0.00000 [K] +/-            0.00000 [K]

Average Cation Intra Van der Waals energy:
==========================================
	Block[ 0]            0.00000 [K]
	Block[ 1]            0.00000 [K]
	Block[ 2]            0.00000 [K]
	Block[ 3]            0.00000 [K]
	Block[ 4]            0.00000 [K]
	------------------------------------------------------------------------------
	Average              0.00000 [K] +/-            0.00000 [K]

Average Cation Intra charge-charge Coulomb energy:
====================================
	Block[ 0]            0.00000 [K]
	Block[ 1]            0.00000 [K]
	Block[ 2]            0.00000 [K]
	Block[ 3]            0.00000 [K]
	Block[ 4]            0.00000 [K]
	------------------------------------------------------------------------------
	Average              0.00000 [K] +/-            0.00000 [K]

Average Cation Intra charge-bonddipole Coulomb energy:
====================================
	Block[ 0]            0.00000 [K]
	Block[ 1]            0.00000 [K]
	Block[ 2]            0.00000 [K]
	Block[ 3]            0.00000 [K]
	Block[ 4]            0.00000 [K]
	------------------------------------------------------------------------------
	Average              0.00000 [K] +/-            0.00000 [K]

Average Cation Intra bonddipole-bonddipole Coulomb energy:
====================================
	Block[ 0]            0.00000 [K]
	Block[ 1]            0.00000 [K]
	Block[ 2]            0.00000 [K]
	Block[ 3]            0.00000 [K]
	Block[ 4]            0.00000 [K]
	------------------------------------------------------------------------------
	Average              0.00000 [K] +/-            0.00000 [K]

Average Host-Host energy:
=========================
	Block[ 0] 0.00000            Van der Waals: 0.00000            Coulomb: 0.00000            [K]
	Block[ 1] 0.00000            Van der Waals: 0.00000            Coulomb: 0.00000            [K]
	Block[ 2] 0.00000            Van der Waals: 0.00000            Coulomb: 0.00000            [K]
	Block[ 3] 0.00000            Van der Waals: 0.00000            Coulomb: 0.00000            [K]
	Block[ 4] 0.00000            Van der Waals: 0.00000            Coulomb: 0.00000            [K]
	------------------------------------------------------------------------------
	Average   0.00000            Van der Waals: 0.000000           Coulomb: 0.00000            [K]
	      +/- 0.00000                       +/- 0.000000                +/- 0.00000            [K]

Average Adsorbate-Adsorbate energy:
===================================
	Block[ 0] -90625.40045       Van der Waals: -90625.40045       Coulomb: 0.00000            [K]
	Block[ 1] -94050.12775       Van der Waals: -94050.12775       Coulomb: 0.00000            [K]
	Block[ 2] -93816.50452       Van der Waals: -93816.50452       Coulomb: 0.00000            [K]
	Block[ 3] -93456.33745       Van der Waals: -93456.33745       Coulomb: 0.00000            [K]
	Block[ 4] -93541.17799       Van der Waals: -93541.17799       Coulomb: 0.00000            [K]
	------------------------------------------------------------------------------
	Average   -93097.90963       Van der Waals: -93097.909631      Coulomb: 0.00000            [K]
	      +/- 2507.80493                    +/- 2507.804930             +/- 0.00000            [K]

Average Cation-Cation energy:
=============================
	Block[ 0] 0.00000            Van der Waals: 0.00000            Coulomb: 0.00000            [K]
	Block[ 1] 0.00000            Van der Waals: 0.00000            Coulomb: 0.00000            [K]
	Block[ 2] 0.00000            Van der Waals: 0.00000            Coulomb: 0.00000            [K]
	Block[ 3] 0.00000            Van der Waals: 0.00000            Coulomb: 0.00000            [K]
	Block[ 4] 0.00000            Van der Waals: 0.00000            Coulomb: 0.00000            [K]
	------------------------------------------------------------------------------
	Average   0.00000            Van der Waals: 0.000000           Coulomb: 0.00000            [K]
	      +/- 0.00000                       +/- 0.000000                +/- 0.00000            [K]

Average Host-Adsorbate energy:
==============================
	Block[ 0] -1334601.47962     Van der Waals: -1334601.47962     Coulomb: 0.00000            [K]
	Block[ 1] -1361882.85963     Van der Waals: -1361882.85963     Coulomb: 0.00000            [K]
	Block[ 2] -1362209.42908     Van der Waals: -1362209.42908     Coulomb: 0.00000            [K]
	Block[ 3] -1364203.14053     Van der Waals: -1364203.14053     Coulomb: 0.00000            [K]
	Block[ 4] -1364149.88519     Van der Waals: -1364149.88519     Coulomb: 0.00000            [K]
	------------------------------------------------------------------------------
	Average   -1357409.35881     Van der Waals: -1357409.358807    Coulomb: 0.00000            [K]
	      +/- 22888.29226                   +/- 22888.292262            +/- 0.00000            [K]

Average Host-Cation energy:
===========================
	Block[ 0] 0.00000            Van der Waals: 0.00000            Coulomb: 0.00000            [K]
	Block[ 1] 0.00000            Van der Waals: 0.00000            Coulomb: 0.00000            [K]
	Block[ 2] 0.00000            Van der Waals: 0.00000            Coulomb: 0.00000            [K]
	Block[ 3] 0.00000            Van der Waals: 0.00000            Coulomb: 0.00000            [K]
	Block[ 4] 0.00000            Van der Waals: 0.00000            Coulomb: 0.00000            [K]
	------------------------------------------------------------------------------
	Average   0.00000            Van der Waals: 0.000000           Coulomb: 0.00000            [K]
	      +/- 0.00000                       +/- 0.000000                +/- 0.00000            [K]

Average Adsorbate-Cation energy:
================================
	Block[ 0] 0.00000            Van der Waals: 0.00000            Coulomb: 0.00000            [K]
	Block[ 1] 0.00000            Van der Waals: 0.00000            Coulomb: 0.00000            [K]
	Block[ 2] 0.00000            Van der Waals: 0.00000            Coulomb: 0.00000            [K]
	Block[ 3] 0.00000            Van der Waals: 0.00000            Coulomb: 0.00000            [K]
	Block[ 4] 0.00000            Van der Waals: 0.00000            Coulomb: 0.00000            [K]
	------------------------------------------------------------------------------
	Average   0.00000            Van der Waals: 0.000000           Coulomb: 0.00000            [K]
	      +/- 0.00000                       +/- 0.000000                +/- 0.00000            [K]

Host polarization energy:
=======================
	Block[ 0]            0.00000 [K]
	Block[ 1]            0.00000 [K]
	Block[ 2]            0.00000 [K]
	Block[ 3]            0.00000 [K]
	Block[ 4]            0.00000 [K]
	------------------------------------------------------------------------------
	Average              0.00000 [K] +/-            0.00000 [K]

Adsorbate polarization energy:
=======================
	Block[ 0]            0.00000 [K]
	Block[ 1]            0.00000 [K]
	Block[ 2]            0.00000 [K]
	Block[ 3]            0.00000 [K]
	Block[ 4]            0.00000 [K]
	------------------------------------------------------------------------------
	Average              0.00000 [K] +/-            0.00000 [K]

Cation polarization energy:
=======================
	Block[ 0]            0.00000 [K]
	Block[ 1]            0.00000 [K]
	Block[ 2]            0.00000 [K]
	Block[ 3]            0.00000 [K]
	Block[ 4]            0.00000 [K]
	------------------------------------------------------------------------------
	Average              0.00000 [K] +/-            0.00000 [K]

Host back-polarization energy:
=======================
	Block[ 0]            0.00000 [K]
	Block[ 1]            0.00000 [K]
	Block[ 2]            0.00000 [K]
	Block[ 3]            0.00000 [K]
	Block[ 4]            0.00000 [K]
	------------------------------------------------------------------------------
	Average              0.00000 [K] +/-            0.00000 [K]

Adsorbate back-polarization energy:
=======================
	Block[ 0]            0.00000 [K]
	Block[ 1]            0.00000 [K]
	Block[ 2]            0.00000 [K]
	Block[ 3]            0.00000 [K]
	Block[ 4]            0.00000 [K]
	------------------------------------------------------------------------------
	Average              0.00000 [K] +/-            0.00000 [K]

Cation back-polarization energy:
=======================
	Block[ 0]            0.00000 [K]
	Block[ 1]            0.00000 [K]
	Block[ 2]            0.00000 [K]
	Block[ 3]            0.00000 [K]
	Block[ 4]            0.00000 [K]
	------------------------------------------------------------------------------
	Average              0.00000 [K] +/-            0.00000 [K]

Tail-correction energy:
=======================
	Block[ 0]            0.00000 [K]
	Block[ 1]            0.00000 [K]
	Block[ 2]            0.00000 [K]
	Block[ 3]            0.00000 [K]
	Block[ 4]            0.00000 [K]
	------------------------------------------------------------------------------
	Average              0.00000 [K] +/-            0.00000 [K]

Distance-constraints energy:
=======================
	Block[ 0]            0.00000 [K]
	Block[ 1]            0.00000 [K]
	Block[ 2]            0.00000 [K]
	Block[ 3]            0.00000 [K]
	Block[ 4]            0.00000 [K]
	------------------------------------------------------------------------------
	Average              0.00000 [K] +/-            0.00000 [K]

Angle-constraints energy:
=======================
	Block[ 0]            0.00000 [K]
	Block[ 1]            0.00000 [K]
	Block[ 2]            0.00000 [K]
	Block[ 3]            0.00000 [K]
	Block[ 4]            0.00000 [K]
	------------------------------------------------------------------------------
	Average              0.00000 [K] +/-            0.00000 [K]

Dihedral-constraints energy:
=======================
	Block[ 0]            0.00000 [K]
	Block[ 1]            0.00000 [K]
	Block[ 2]            0.00000 [K]
	Block[ 3]            0.00000 [K]
	Block[ 4]            0.00000 [K]
	------------------------------------------------------------------------------
	Average              0.00000 [K] +/-            0.00000 [K]

Inversion-bend constraints energy:
=======================
	Block[ 0]            0.00000 [K]
	Block[ 1]            0.00000 [K]
	Block[ 2]            0.00000 [K]
	Block[ 3]            0.00000 [K]
	Block[ 4]            0.00000 [K]
	------------------------------------------------------------------------------
	Average              0.00000 [K] +/-            0.00000 [K]

Out-of-plane-distance constraints energy:
=======================
	Block[ 0]            0.00000 [K]
	Block[ 1]            0.00000 [K]
	Block[ 2]            0.00000 [K]
	Block[ 3]            0.00000 [K]
	Block[ 4]            0.00000 [K]
	------------------------------------------------------------------------------
	Average              0.00000 [K] +/-            0.00000 [K]

Exclusion-constraints energy:
=======================
	Block[ 0]            0.00000 [K]
	Block[ 1]            0.00000 [K]
	Block[ 2]            0.00000 [K]
	Block[ 3]            0.00000 [K]
	Block[ 4]            0.00000 [K]
	------------------------------------------------------------------------------
	Average              0.00000 [K] +/-            0.00000 [K]

Total energy:
=============
	Block[ 0]     -1425226.88006 [K]
	Block[ 1]     -1455932.98738 [K]
	Block[ 2]     -1456025.93360 [K]
	Block[ 3]     -1457659.47798 [K]
	Block[ 4]     -1457691.06317 [K]
	------------------------------------------------------------------------------
	Average       -1450507.26844 [K] +/-        25325.92562 [K]

Number of molecules:
====================

Component 0 [argon]
-------------------------------------------------------------
	Block[ 0] 560.69650          [-]
	Block[ 1] 574.04815          [-]
	Block[ 2] 573.98705          [-]
	Block[ 3] 574.95500          [-]
	Block[ 4] 575.00000          [-]
	------------------------------------------------------------------------------
	Average                                    571.7373400000 +/-      11.0742754886 [-]
	Average loading absolute [molecules/unit cell]       47.6447783333 +/-       0.9228562907 [-]
	Average loading absolute [mol/kg framework]          7.0800493065 +/-       0.1371371275 [-]
	Average loading absolute [milligram/gram framework]        282.8338096968 +/-       5.4783539695 [-]
	Average loading absolute [cm^3 (STP)/gr framework]        158.6920534481 +/-       3.0737882499 [-]
	Average loading absolute [cm^3 (STP)/cm^3 framework]        274.7307217310 +/-       5.3214010784 [-]

	Block[ 0] 560.69650          [-]
	Block[ 1] 574.04815          [-]
	Block[ 2] 573.98705          [-]
	Block[ 3] 574.95500          [-]
	Block[ 4] 575.00000          [-]
	------------------------------------------------------------------------------
	Average                                    571.7373400000 +/-      11.0742754886 [-]
	Average loading excess [molecules/unit cell]       47.6447783333 +/-       0.9228562907 [-]
	Average loading excess [mol/kg framework]          7.0800493065 +/-       0.1371371275 [-]
	Average loading excess [milligram/gram framework]        282.8338096968 +/-       5.4783539695 [-]
	Average loading excess [cm^3 (STP)/gr framework]        158.6920534481 +/-       3.0737882499 [-]
	Average loading excess [cm^3 (STP)/cm^3 framework]        274.7307217310 +/-       5.3214010784 [-]


Average Widom Rosenbluth factor:
================================
	Block[ 0] 0 [-]
	Block[ 1] 0 [-]
	Block[ 2] 0 [-]
	Block[ 3] 0 [-]
	Block[ 4] 0 [-]
	------------------------------------------------------------------------------
	[argon] Average Widom Rosenbluth-weight:   0 +/- 0.000000 [-]

Average Widom chemical potential:
=================================
	Block[ 0] 0 [-]
	Block[ 1] 0 [-]
	Block[ 2] 0 [-]
	Block[ 3] 0 [-]
	Block[ 4] 0 [-]
	------------------------------------------------------------------------------
	[argon] Average chemical potential:   0 +/- 0.000000 [K]

Average Widom Ideal-gas contribution:
=====================================
	Block[ 0] 0 [-]
	Block[ 1] 0 [-]
	Block[ 2] 0 [-]
	Block[ 3] 0 [-]
	Block[ 4] 0 [-]
	------------------------------------------------------------------------------
	[argon] Average Widom Ideal-gas chemical potential:   0 +/- 0.000000 [-]

Average Widom excess contribution:
==================================
	Block[ 0] 0 [-]
	Block[ 1] 0 [-]
	Block[ 2] 0 [-]
	Block[ 3] 0 [-]
	Block[ 4] 0 [-]
	------------------------------------------------------------------------------
	[argon] Average Widom excess chemical potential:   0 +/- 0.000000 [-]

Average Gibbs Widom Rosenbluth factor:
======================================
	Block[ 0] 0 [-]
	Block[ 1] 0 [-]
	Block[ 2] 0 [-]
	Block[ 3] 0 [-]
	Block[ 4] 0 [-]
	------------------------------------------------------------------------------
	[argon] Average Gibbs Widom Rosenbluth-weight:   0 +/- 0.000000 [-]

Average Gibbs Widom chemical potential:
=======================================
	Block[ 0] 0 [-]
	Block[ 1] 0 [-]
	Block[ 2] 0 [-]
	Block[ 3] 0 [-]
	Block[ 4] 0 [-]
	------------------------------------------------------------------------------
	[argon] Average Gibbs chemical potential:   0 +/- 0.000000 [K]

Average Gibbs Widom Ideal-gas contribution:
===========================================
	Block[ 0] 0 [-]
	Block[ 1] 0 [-]
	Block[ 2] 0 [-]
	Block[ 3] 0 [-]
	Block[ 4] 0 [-]
	------------------------------------------------------------------------------
	[argon] Average Gibbs Ideal-gas chemical potential:   0 +/- 0.000000 [-]

Average Gibbs Widom excess contribution:
===========================================
	Block[ 0] 0 [-]
	Block[ 1] 0 [-]
	Block[ 2] 0 [-]
	Block[ 3] 0 [-]
	Block[ 4] 0 [-]
	------------------------------------------------------------------------------
	[argon] Average Gibbs excess chemical potential:   0 +/- 0.000000 [-]

Average Henry coefficient:
==========================
	Block[ 0] 0 [mol/kg/Pa]
	Block[ 1] 0 [mol/kg/Pa]
	Block[ 2] 0 [mol/kg/Pa]
	Block[ 3] 0 [mol/kg/Pa]
	Block[ 4] 0 [mol/kg/Pa]
	------------------------------------------------------------------------------
	[argon] Average Henry coefficient:  0 +/- 0 [mol/kg/Pa]

Average adsorption energy <U_gh>_1-<U_h>_0 obtained from Widom-insertion:
(Note: the total heat of adsorption is dH=<U_gh>_1-<U_h>_0 - <U_g> - RT)
=========================================================================

Simulation finished,  0 warnings


Tue Jun  8 09:12:54 2021
Simulation finished on Tuesday, June 08.
The end time was 09:12 AM.

