Compiler and run-time data
===========================================================================
RASPA 2.0.37
Compiled as a 64-bits application
Compiler: gcc Intel(R) C++ gcc 4.8.5 mode
Compile Date = May 12 2020, Compile Time = 18:40:55

Thu Jun 10 05:57:57 2021
Simulation started on Thursday, June 10.
The start time was 05:57 AM.

Hostname:    The start time was 05:57 AM.
OS type:     The start time was 05:57 AM.
OS release:  The start time was 05:57 AM.
OS version:  The start time was 05:57 AM.

Simulation
===========================================================================
Dimensions: 3
Random number seed: 1623301076
RASPA directory set to: /mnt/iusers01/ceas01/m86397ah/Installed_software/RASPA
String appended to output-files: 
Number of cycles: 50000
Number of initializing cycles: 50000
Number of equilibration cycles: 0
Print every: 500
Triclinic boundary condition applied
Timestep: 0.000500
	Degrees of freedom:                        0
	Translational Degrees of freedom:          0
	Rotational Degrees of freedom:             0
	Degrees of freedom Framework:              0


Mutual consistent basic set of units:
======================================
Unit of temperature: Kelvin
Unit of length:      1e-10 [m]
Unit of time:        1e-12 [s]
Unit of mass:        1.66054e-27 [kg]
Unit of charge:      1.60218e-19 [C/particle]

Derived units and their conversion factors:
===========================================
Unit of energy:              1.66054e-23 [J]
Unit of force:               1.66054e-13 [N]
Unit of pressure:            1.66054e+07 [Pa]
Unit of velocity:            100 [m/s]
Unit of acceleration:        1e-08 [m^2/s]
Unit of diffusion:           1e-08 [m^2/s]
Unit of dipole moment:       1.60218e-29 [C.m]
Unit of electric potential:  0.000103643 [V]
Unit of electric field:      1.03643e+06 [V]
Unit of polarizability:      1.54587e-35 [-]
Unit of Coulomb potential:   167101.0800066561  [K]
Unit of dielectric constant: 0.0000154587       [s^2 C^2/(kg m^3)]
Unit of wave vectors:        5.3088374589       [cm^1]
Boltzmann constant:          0.8314464919       [-]

Internal conversion factors:
===========================================
Energy to Kelvin:                                    1.2027242847
FH correction factor                                 2.0211930949
Heat capacity conversion factor:                    10.0000088723
From Debye to internal units:                        4.8032067991
Isothermal compressibility conversion factor:        0.0000000602

Energy conversion factors:
===========================================
From mdyne/A to kcal/mol/A^2:           143.933
From mdyne/A to kj/mol/A^2:             602.214
From mdyne/A to K/A^2:                  72429.7
From mdyne A/rad^2 to kcal/mol/deg^2:   0.0438444


Properties computed
===========================================================================
Movies: yes
	Movie snapshots are appended to file every 1000 cycles
Radial Distribution Function: no
Number of molecules GCMC histogram: no
Histogram of the molecule positions: no
Free energy profiles: no
Pore Size Distribution Function: no
End-to-end distance: no
Histogram of the energy of the system: no
Compute thermodynamic factors: no
Framework spacing histograms: no
Residence times histograms: no
Distance histograms: no
Bend Angle histograms: no
Dihedral angle histograms: no
Angle between planes histograms: no
Molecule properties: no
Infra-red spectra: no
Mean-squared displacement using modified order-N algorithm: no
Velocity-autocorrelation function modified order-N algorithm: no
Rotational velocity-autocorrelation function modified order-N algorithm: no
Molecular orientation-autocorrelation function modified order-N algorithm: no
Bond orientation-autocorrelation function modified order-N algorithm: no
Mean-squared displacement (conventional algorithm): no
Velocity-autocorrelation function (conventional algorithm): no
3D density grid for adsorbates: no
Compute cation an/or adsorption sites: no
dcTST snapshots: no
Compute pressure and stress: no


VTK
===========================================================================
VTK fractional-range position framework atoms: [-0.001000,1.001000] [-0.001000,1.001000] [-0.001000,1.001000]
VTK fractional-range position framework bonds: [-0.151000,1.151000] [-0.151000,1.151000] [-0.151000,1.151000]
VTK fractional-range com-position adsorbate molecules: [-0.101000,1.101000] [-0.101000,1.101000] [-0.101000,1.101000]
VTK fractional-range com-position cation molecules: [-0.101000,1.101000] [-0.101000,1.101000] [-0.101000,1.101000]
	3D free energy grid made for the full simulation-cell


Thermo/Baro-stat NHC parameters
===========================================================================
External temperature: 87 [K]
Beta: 0.0138244 [energy unit]
External Pressure: 101325 [Pa]


Thermostat chain-length: 3
Timescale parameter for thermostat: 0.150000 [ps]
Barostat chain-length:   3
Timescale parameter for barostat:   0.150000 [ps]

Number of Yoshida-Suzuki decomposition steps: 5
Number of respa steps: 5


Method and settings for electrostatics
===============================================================================
Dielectric constant of the medium : 1.000000
Charge from charge-equilibration: no
Ewald summation is used (exact solution of a periodic system)
Relative precision                : 1e-06
Alpha convergence parameter       : 0.265058
kvec (x,y,z)                      : 11 11 12


CFC-RXMC parameters
===========================================================================
Number of reactions: 0


Rattle parameters
===========================================================================
Distance constraint type: r^2-r^2_0
Bend angle constraint type: theta-theta_0
Dihedral angle constraint type: phi-phi_0
Inversion-bend angle constraint type: chi-chi_0
Out-of-plane distance constraint type: r-r_0


Spectra parameters
===========================================================================
Compute normal modes: no


Minimization parameters
===========================================================================
Generalized coordinates are: Cartesian center-of-mass, elements of the orientational matrix p1,p2,p3 and strain
Potential derivatives are evaluated: analytically
Translation of the system is removed from the generalized Hessian: no
Rotation of the system is removed from the generalized Hessian: no
Maximum step-length: 0.3
Convergence factor: 1
Maximum number of minimization steps: 10000
Use gradients in the line-minimizations: yes
RMS gradient tolerance: 1e-06
Maximum gradient tolerance: 1e-06

Distance constraints: 0
Angle constraints: 0
Dihedral constraints: 0

Improper dihedral constraints: 0

Inversion-bend constraints: 0

Out-of-plane constraints: 0

Harmonic distance constraints: 0
Harmonic angle constraints: 0
Harmonic dihedral constraints: 0

Dihedral mid-point measurements: 0

All framework atoms are fixed

Fixed adsorbate atoms:  
Fixed adsorbate groups (center-of-mass):  
Fixed adsorbate groups (orientation):  

Fixed cation atoms:  
Fixed cation groups (center-of-mass):  
Fixed cation groups (orientation):  


dcTST parameters
===========================================================================
Free energy profiles computed: no
Free energy profiles written every 5000 cycles
Free energy mapping: mapped to a,b,c-coordinates
BarrierPosition:       0.0000000000       0.0000000000       0.0000000000
BarrierNormal:         0.0000000000       0.0000000000       0.0000000000
Start with a molecule on top of the barrier: no
Maximum distance to barrier (e.g. distance to minumum free energy):       0.0000000000 [A]
Maximum trajectory time:      10.0000000000 [ps]
Each configuration is used with 5 different initial velocities


Cbmc parameters
===========================================================================
Biasing method: using only the VDW part
Number of trial positions:                                       10
Number of trial positions (reinsertion):                         10
Number of trial positions (partial reinsertion):                 10
Number of trial positions (identity-change):                     10
Number of trial positions (Gibbs particle transfer):             10
Number of trial positions (insertion/deletion):                  10
Number of trial positions (Widom insertion):                     10
Number of trial positions coupled Torsion-selection:             100
Number of trial positions first bead:                            10
Number of trial positions first bead (reinsertion):              10
Number of trial positions first bead (partial reinsertion):      10
Number of trial positions first bead (identity-change):          10
Number of trial positions first bead (Gibbs particle transfer):  10
Number of trial positions first bead (insertion/deletion):       10
Number of trial positions first bead (Widom insertion):          10
Number of trial moves per open bead:                             150
Target acceptance ratio small-mc scheme:                         0.400000
Energy overlap criteria:                                         1e+07
Minimal Rosenbluth factor:                                       1e-150


Pseudo atoms: 7
===========================================================================
Pseudo Atom[   0] Name UNIT     Oxidation:          Element: H    pdb-name: H    Scat. Types:   1   1 Mass=1.000000000  B-factor:0.000   
                 Charge=1.000000000          Polarization=0.000000000  [A^3] (considered a charged atom and no polarization)  Interactions: yes
                 Anisotropic factor:    0.000 [-] (Absolute), Radius:    1.000 [A], Framework-atom:  no
Pseudo Atom[   1] Name DUMMY    Oxidation: +0       Element: H    pdb-name: H    Scat. Types:   1   1 Mass=1.000000000  B-factor:1.000   
                 Charge=0.000000000          Polarization=0.000000000  [A^3] (considered a chargeless atom and no polarization)  Interactions:  no
                 Anisotropic factor:    0.000 [-] (Absolute), Radius:    1.000 [A], Framework-atom:  no
Pseudo Atom[   2] Name He       Oxidation: +0       Element: He   pdb-name: He   Scat. Types:   3   2 Mass=4.002602000  B-factor:1.000   
                 Charge=0.000000000          Polarization=0.000000000  [A^3] (considered a chargeless atom and no polarization)  Interactions: yes
                 Anisotropic factor:    0.000 [-] (Absolute), Radius:    1.000 [A], Framework-atom:  no
Pseudo Atom[   3] Name Ar       Oxidation: +0       Element: Ar   pdb-name: Ar   Scat. Types:  19  18 Mass=39.948000000 B-factor:1.000   
                 Charge=0.000000000          Polarization=0.000000000  [A^3] (considered a chargeless atom and no polarization)  Interactions: yes
                 Anisotropic factor:    0.000 [-] (Absolute), Radius:    1.000 [A], Framework-atom:  no
Pseudo Atom[   4] Name T        Oxidation: +0       Element: Si   pdb-name: Si   Scat. Types:  15  14 Mass=28.085500000 B-factor:1.000   
                 Charge=0.000000000          Polarization=0.000000000  [A^3] (considered a chargeless atom and no polarization)  Interactions: yes
                 Anisotropic factor:    0.000 [-] (Absolute), Radius:    1.180 [A], Framework-atom: yes (charge from pseudo-atoms file)
Pseudo Atom[   5] Name Al       Oxidation: +0       Element: Al   pdb-name: Al   Scat. Types:  14  13 Mass=26.981539000 B-factor:1.000   
                 Charge=0.000000000          Polarization=0.000000000  [A^3] (considered a chargeless atom and no polarization)  Interactions: yes
                 Anisotropic factor:    0.000 [-] (Absolute), Radius:    1.180 [A], Framework-atom:  no
Pseudo Atom[   6] Name O        Oxidation: +0       Element: O    pdb-name: O    Scat. Types:   9   8 Mass=15.999400000 B-factor:1.000   
                 Charge=0.000000000          Polarization=0.000000000  [A^3] (considered a chargeless atom and no polarization)  Interactions: yes
                 Anisotropic factor:    0.000 [-] (Absolute), Radius:    0.500 [A], Framework-atom: yes (charge from pseudo-atoms file)


Forcefield: local
===========================================================================
Minimal distance: 1
CutOff VDW : 12.800000 (163.840000)
CutOff VDW switching on: 11.520000 (132.710400)
CutOff charge-charge : 12.000000 (144.000000)
CutOff charge-charge switching on: 7.800000 (60.840000)
CutOff charge-bonddipole : 12.000000 (144.000000)
CutOff charge-bondipole switching on: 8.400000 (70.560000)
CutOff bonddipole-bonddipole : 12.000000 (144.000000)
CutOff bonddipole-bondipole switching on: 9.000000 (81.000000)
Polarization is neglected
All potentials are unshifted !!!!!!

General mixing rule: Lorentz-Berthelot mixing rules are used FIRST for cross terms
0 cross terms are overwritten using the individual mixing rules from the file 'force_field_mixing_rules.def'
and then 0 terms are overwritten using the specific interactions from the file 'force_field.def'

The force field and all the interactions:
     He -      He [LENNARD_JONES] p_0/k_B:  10.22000 [K], p_1: 2.58000 [A], shift/k_B:   0.00000000 [K], tailcorrection: no
     He -      Ar [LENNARD_JONES] p_0/k_B:  34.99080 [K], p_1: 2.99000 [A], shift/k_B:   0.00000000 [K], tailcorrection: no
     He -       T [LENNARD_JONES] p_0/k_B:  45.45298 [K], p_1: 3.20300 [A], shift/k_B:   0.00000000 [K], tailcorrection: no
     He -      Al [LENNARD_JONES] p_0/k_B:  50.94376 [K], p_1: 3.29400 [A], shift/k_B:   0.00000000 [K], tailcorrection: no
     He -       O [LENNARD_JONES] p_0/k_B:  17.56827 [K], p_1: 2.84900 [A], shift/k_B:   0.00000000 [K], tailcorrection: no
     Ar -      Ar [LENNARD_JONES] p_0/k_B: 119.80000 [K], p_1: 3.40000 [A], shift/k_B:   0.00000000 [K], tailcorrection: no
     Ar -       T [LENNARD_JONES] p_0/k_B: 155.61995 [K], p_1: 3.61300 [A], shift/k_B:   0.00000000 [K], tailcorrection: no
     Ar -      Al [LENNARD_JONES] p_0/k_B: 174.41907 [K], p_1: 3.70400 [A], shift/k_B:   0.00000000 [K], tailcorrection: no
     Ar -       O [LENNARD_JONES] p_0/k_B:  60.14948 [K], p_1: 3.25900 [A], shift/k_B:   0.00000000 [K], tailcorrection: no
      T -       T [LENNARD_JONES] p_0/k_B: 202.15000 [K], p_1: 3.82600 [A], shift/k_B:   0.00000000 [K], tailcorrection: no
      T -      Al [LENNARD_JONES] p_0/k_B: 226.57001 [K], p_1: 3.91700 [A], shift/k_B:   0.00000000 [K], tailcorrection: no
      T -       O [LENNARD_JONES] p_0/k_B:  78.13405 [K], p_1: 3.47200 [A], shift/k_B:   0.00000000 [K], tailcorrection: no
     Al -      Al [LENNARD_JONES] p_0/k_B: 253.94000 [K], p_1: 4.00800 [A], shift/k_B:   0.00000000 [K], tailcorrection: no
     Al -       O [LENNARD_JONES] p_0/k_B:  87.57276 [K], p_1: 3.56300 [A], shift/k_B:   0.00000000 [K], tailcorrection: no
      O -       O [LENNARD_JONES] p_0/k_B:  30.20000 [K], p_1: 3.11800 [A], shift/k_B:   0.00000000 [K], tailcorrection: no


MoleculeDefinitions:
===========================================================================
Component 0 [argon] (Adsorbate molecule)

	MoleculeDefinitions: argon
	Component contains no atoms with charge
	Component contains no atoms with point dipoles (polarization)
	Component has a net charge of 0.000000

	Ideal chain Rosenbluth weight: 1
	Ideal chain total energy: 0.000000

	Critical temparure [K]: 154.580000
	Critical pressure [Pa]: 5043000.000000
	Acentric factor [-]: 0.000000

	RXMC partition factor ln(q/V) [ln(A^(-3))]:       0.0000000000

	Liquid=stable, Vapour=metastable

	MolFraction:           1.0000000000 [-]
	Compressibility:       0.0034503778 [-]

	Density of the bulk fluid phase:    1621.7781374247 [kg/m^3]

	Binary mixture EOS parameters:  (0): 0.000000

	Amount of excess molecules:       0.0000000000 [-]

	Conversion factor molecules/unit cell -> mol/kg:       0.1541044709 [-]
	Conversion factor molecules/unit cell -> mg/g:       6.1561654024 [-]
	Conversion factor molecules/unit cell -> cm^3 STP/gr:       3.4540938727 [-]
	Conversion factor molecules/unit cell -> cm^3 STP/cm^3:       5.1999192151 [-]
	Conversion factor mol/kg -> cm^3 STP/gr:      22.4139757476 [-]
	Conversion factor mol/kg -> cm^3 STP/cm^3:      33.7428186582 [-]

	Partial pressure:    101325.00000000000000 [Pa]
	                        759.93750000000000 [Torr]
	                          1.01325000000000 [bar]
	                          1.00000000000000 [atm]

	Fugacity coefficient:       1.0000000000 [-]

	Partial fugacity:    101325.00000000000000 [Pa]
	                        759.93750000000000 [Torr]
	                          1.01325000000000 [bar]
	                          1.00000000000000 [atm]

	Molecule contains 1 number of atoms
		atom:    0  is of type:    3 [        Ar] (group: 0)

	Molecule contains 0 chirality centers

	Molecule contains 1 number of groups

		group: 0 containing: 1 elements
		-------------------------------------------------
		the group is modelled as flexible, i.e. no constraints
		Mass: 39.948000 [a.u.]
		Mass: 1.029747 [kg/m^3]

		Rotational Degrees of freedom: 0
		Diagonalized inertia vector:       0.0000000000
		                                   0.0000000000
		                                   0.0000000000
		element: 0 atom: 0 [        Ar] Charge:  0.000000 Anisotropy: 0.000000 Connectivity: 0 ()

		Dipole:           0.0000000000 [D]
		Quadrupole:       0.0000000000       0.0000000000       0.0000000000 [D Angstrom]
		Quadrupole tensor [D Angstrom]
				       0.0000000000       0.0000000000       0.0000000000
				       0.0000000000       0.0000000000       0.0000000000
				       0.0000000000       0.0000000000       0.0000000000

	Starting bead for growth               : 0

	Degrees of freedom                     : 0
	Translational degrees of freedom       : 0
	Rotational degrees of freedom          : 0
	Vibrational degrees of freedom         : 0
	Constraint degrees of freedom          : 0

	Number of atoms                        : 1

	Number of constraint bonds             : 0
	Number of constraint bends             : 0
	Number of constraint inversion bends   : 0
	Number of constraint torsions          : 0
	Number of constraint improper torsions : 0
	Number of constraint improper torsions : 0

	Number of bonds                        : 0
	Number of Urey-Bradleys                : 0
	Number of bends                        : 0
	Number of inversion bends              : 0
	Number of torsions                     : 0
	Number of improper torsions            : 0
	Number of improper torsions            : 0

	Number of bond/bond cross terms        : 0
	Number of bond/bend cross terms        : 0
	Number of bend/bend cross terms        : 0
	Number of stretch/torsion cross terms  : 0
	Number of bend/torsion cross terms     : 0

	Number of charges                      : 0
	Number of bond-dipoles                 : 0

	Number of intra Van der Waals                             : 0
	Number of intra charge-charge Coulomb                     : 0
	Number of intra charge-bonddipole Coulomb                 : 0
	Number of intra bonddipole-bonddipole Coulomb             : 0

	Number of excluded intra charge-charge Coulomb                     : 0
	Number of excluded intra charge-bonddipole Coulomb                 : 0
	Number of excluded intra bonddipole-bonddipole Coulomb             : 0

	Number of cbmc-config moves                               : 0

	Particle Moves:             
		ProbabilityTranslationMove:                  20.000000
			TranslationDirection:      XYZ
		Percentage of random translation moves:            0.000000
		Percentage of rotation moves:                      20.000000
		Percentage of random rotation moves:               0.000000
		Percentage of partial reinsertion moves:           0.000000
		Percentage of reinsertion moves:                   20.000000
		Percentage of reinsertion-in-place moves:          0.000000
		Percentage of reinsertion-in-plane moves:          0.000000
		Percentage of identity-change moves:               0.000000
		Percentage of swap (insert/delete) moves:          40.000000
		Percentage of CF swap lambda moves:                0.000000
		Percentage of CB/CFMC swap lambda moves:           0.000000
		Percentage of Widom insertion moves:               0.000000
		Percentage of CF-Widom insertion moves:            0.000000
		Percentage of Gibbs Widom insertion moves:         0.000000
		Percentage of surface-area moves:                  0.000000
		Percentage of Gibbs particle-transfer moves:       0.000000
		Percentage of Gibbs identity-change moves:         0.000000
		Percentage of CF Gibbs lambda-transfer moves:      0.000000
		Percentage of CB/CFMC Gibbs lambda-transfer moves: 0.000000
		Percentage of exchange frac./int. particle moves:  0.000000
		Percentage of fractional mol. to other box moves:  0.000000
		Percentage of lambda-change moves:                 0.000000
		Percentage of fractional to integer moves:         0.000000

	System Moves:
		Percentage of parallel-tempering moves:            0.000000
		Percentage of hyper-parallel-tempering moves:      0.000000
		Percentage of parallel-mol-fraction moves:         0.000000
			   Component A: 0 B: 1
		Percentage of chiral inversion moves:              0.000000
		Percentage of Hybrid-NVE moves:                    0.000000
		Percentage of Hybrid-NPH moves:                    0.000000
		Percentage of Hybrid-NPHPR moves:                  0.000000
		Percentage of volume-change moves:                 0.000000
		Percentage of box-shape-change moves:              0.000000
		Percentage of Gibbs volume-change moves:           0.000000
		Percentage of framework-change moves:              0.000000
		Percentage of framework-shift moves:               0.000000
		Percentage of reactive MC moves:                   0.000000

	Moves are restricted: No
	No biased sampling used for this component


	number of identity-config changes: 1
	--------------------------------------------
	nr fixed 1: 0 

	Number of pockets blocked in a unitcell: 0
		Pockets are NOT blocked for this component



Framework Status
===========================================================================
Lowenstein's rule obeyed by framework
	Framework is modelled as: rigid

	Number of charges:                               0
	Number of bonddipoles:                           0


System Properties
===========================================================================
Unit cell size: 13.680610 13.680610 44.160070
Cell angles (radians)  alpha: 1.570796 beta: 1.570796 gamma: 2.094395
Cell angles (degrees)  alpha: 90.000000 beta: 90.000000 gamma: 120.000000
Number of unitcells [a]: 3
Number of unitcells [b]: 3
Number of unitcells [c]: 1

TRICLINIC Boundary conditions: alpha!=90 or beta!=90 or gamma!=90

Cartesian axis A is collinear with crystallographic axis a
Cartesian axis B is collinear with (axb)xA
Cartesian axis C is collinear with (axb)

lengths of cell vectors:
 41.04183  41.04183  44.16007
cosines of cell angles:
  0.00000   0.00000  -0.50000
perpendicular cell widths:
 35.54327  35.54327  44.16007
volume of the cell: 64418.976311507620 (A^3)

Orthogonalization matrix Box
Transforms fractional coordinates abc into orthonormal Cartesian coordinates xyz
Deorthogonalization matrix InverseBox
Transforms orthonormal Cartesian coordinates xyz into fractional coordinates xyz

Box[0]:
	   41.041830000000   -20.520915000000     0.000000000000
	    0.000000000000    35.543267397802     0.000000000000
	    0.000000000000     0.000000000000    44.160070000000

Inverse box[0]:
	    0.024365385267     0.014067361743    -0.000000000000
	    0.000000000000     0.028134723485    -0.000000000000
	    0.000000000000    -0.000000000000     0.022644891641


Unitcell box[0]:
	   13.680610000000    -6.840305000000     0.000000000000
	    0.000000000000    11.847755799267     0.000000000000
	    0.000000000000     0.000000000000    44.160070000000

Unitcell inverse box[0]:
	    0.073096155800     0.042202085228    -0.000000000000
	    0.000000000000     0.084404170456    -0.000000000000
	    0.000000000000    -0.000000000000     0.022644891641

lengths of cell vectors (inverse box):
  0.02437   0.03146   0.02264
cosines of cell angles (inverse box):
 -0.00000  -0.00000   0.44721
perpendicular cell widths (inverse):
  0.02179   0.02813   0.02264
volume of the cell: 64418.976311507620 (A^3)

No replicas are used
Framework is simulated as 'rigid'
Number of framework atoms: 2916
Number of framework atoms in the unit cell: 324
Framework Mass: 58401.939600001613 [g/mol]
Framework Density:  1505.436565032486 [kg/m^3]    0.6642591413199 [cm^3/g]
Helium void fraction:    0.00000000
Available pore volume:    0.00000000 [A^3]    0.00000000 [cm^3/g]
Conversion factor from molecule/unit cell -> kmol/m^3: 0.0257772, kmol/m^3 accesible pore volume: inf

Number Of Frameworks (per system): 1
----------------------------------------------------------------------
Framework name: zeolite
Space group: 166
	Identifier: 458
	short international Hermann-Mauguin symbol: R -3 m:H
	long international Hermann-Mauguin symbol: R -3 2/m:H
	Hall symbol: -R 3 2"
	Number of lattice translations: 3 [ (0,0,0) (0.666667,0.333333,0.333333) (0.333333,0.666667,0.666667) ]
	acentric/centric: acentric
	chiral: yes
	enantiomorphic: no
	number of operators: 36
		'x,y,z'
		'-y,x-y,z'
		'-x+y,-x,z'
		'y,x,-z'
		'x-y,-y,-z'
		'-x,-x+y,-z'
		'-x,-y,-z'
		'y,-x+y,-z'
		'x-y,x,-z'
		'-y,-x,z'
		'-x+y,y,z'
		'x,x-y,z'
		'x+2/3,y+1/3,z+1/3'
		'-y+2/3,x-y+1/3,z+1/3'
		'-x+y+2/3,-x+1/3,z+1/3'
		'y+2/3,x+1/3,-z+1/3'
		'x-y+2/3,-y+1/3,-z+1/3'
		'-x+2/3,-x+y+1/3,-z+1/3'
		'-x+2/3,-y+1/3,-z+1/3'
		'y+2/3,-x+y+1/3,-z+1/3'
		'x-y+2/3,x+1/3,-z+1/3'
		'-y+2/3,-x+1/3,z+1/3'
		'-x+y+2/3,y+1/3,z+1/3'
		'x+2/3,x-y+1/3,z+1/3'
		'x+1/3,y+2/3,z+2/3'
		'-y+1/3,x-y+2/3,z+2/3'
		'-x+y+1/3,-x+2/3,z+2/3'
		'y+1/3,x+2/3,-z+2/3'
		'x-y+1/3,-y+2/3,-z+2/3'
		'-x+1/3,-x+y+2/3,-z+2/3'
		'-x+1/3,-y+2/3,-z+2/3'
		'y+1/3,-x+y+2/3,-z+2/3'
		'x-y+1/3,x+2/3,-z+2/3'
		'-y+1/3,-x+2/3,z+2/3'
		'-x+y+1/3,y+2/3,z+2/3'
		'x+1/3,x-y+2/3,z+2/3'
Framework is simulated as 'rigid'
Shift: 0.000000 0.000000 0.000000
Number of framework atoms: 2916
Number of asymmetric atoms: 13
Number of free framework atoms: 0
Number of fixed framework atoms: 2916
Number of framework atoms in the unit cell: 324
Framework Mass: 58401.939600001613 [g/mol]
Framework Density:  1505.436565032486 [kg/m^3]
Framework has net charge: 0.000000
         largest charge : 0.000000
         smallest charge: 0.000000

Using FULL Host-guest interaction calculation (for testing purposes)

Current Atom Status
===========================================================================
Number of framework atoms        : 2916
Number of cations molecules      : 0
Number of adsorbate molecules    : 0
Component    0 :    0 molecules
Pseudo Atoms    0 [    UNIT]:    0 atoms
Pseudo Atoms    1 [   DUMMY]:    0 atoms
Pseudo Atoms    2 [      He]:    0 atoms
Pseudo Atoms    3 [      Ar]:    0 atoms
Pseudo Atoms    4 [       T]:  972 atoms
Pseudo Atoms    5 [      Al]:    0 atoms
Pseudo Atoms    6 [       O]: 1944 atoms


Current (initial full energy) Energy Status
===========================================================================

Internal energy:
Host stretch energy:                                            0.00000000
Host UreyBradley energy:                                        0.00000000
Host bend energy:                                               0.00000000
Host inversion-bend energy:                                     0.00000000
Host torsion energy:                                            0.00000000
Host improper torsion energy:                                   0.00000000
Host out-of-plane energy:                                       0.00000000
Host stretch/stretch energy:                                    0.00000000
Host bend/bend energy:                                          0.00000000
Host stretch/bend energy:                                       0.00000000
Host stretch/torsion energy:                                    0.00000000
Host bend/torsion energy:                                       0.00000000

Adsorbate stretch energy:                                       0.00000000
Adsorbate UreyBradley energy:                                   0.00000000
Adsorbate bend energy:                                          0.00000000
Adsorbate inversion-bend energy:                                0.00000000
Adsorbate torsion energy:                                       0.00000000
Adsorbate improper torsion energy:                              0.00000000
Adsorbate out-of-plane energy:                                  0.00000000
Adsorbate stretch/stretch energy:                               0.00000000
Adsorbate bend/bend energy:                                     0.00000000
Adsorbate stretch/bend energy:                                  0.00000000
Adsorbate stretch/torsion energy:                               0.00000000
Adsorbate bend/torsion energy:                                  0.00000000
Adsorbate intra VDW energy:                                     0.00000000
Adsorbate intra charge-charge Coulomb energy:                   0.00000000
Adsorbate intra charge-bonddipole Coulomb energy:               0.00000000
Adsorbate intra bonddipole-bonddipole Coulomb energy:           0.00000000

Cation stretch energy:                                          0.00000000
Cation UreyBradley energy:                                      0.00000000
Cation bend energy:                                             0.00000000
Cation inversion-bend energy:                                   0.00000000
Cation torsion energy:                                          0.00000000
Cation improper torsion energy:                                 0.00000000
Cation out-of-plane energy:                                     0.00000000
Cation stretch/stretch energy:                                  0.00000000
Cation bend/bend energy:                                        0.00000000
Cation stretch/bend energy:                                     0.00000000
Cation stretch/torsion energy:                                  0.00000000
Cation bend/torsion energy:                                     0.00000000
Cation intra VDW energy:                                        0.00000000
Cation intra charge-charge Coulomb energy:                      0.00000000
Cation intra charge-bonddipole Coulomb energy:                  0.00000000
Cation intra bonddipole-bonddipole Coulomb energy:              0.00000000

Host/Host energy:                                             0.00000000
	Host/Host VDW energy:                                         0.00000000
	Host/Host Coulomb energy:                                     0.00000000
	Host/Host charge-charge Real energy:                          0.00000000
	Host/Host charge-charge Fourier energy:                       0.00000000
	Host/Host charge-bonddipole Real energy:                      0.00000000
	Host/Host charge-bonddipole Fourier energy:                   0.00000000
	Host/Host bondipole-bonddipole Real energy:                   0.00000000
	Host/Host bondipole-bonddipole Fourier energy:                0.00000000

Host/Adsorbate energy:                                        0.00000000
	Host/Adsorbate VDW energy:                                    0.00000000
	Host/Adsorbate Coulomb energy:                                0.00000000
	Host/Adsorbate charge-charge Real energy:                     0.00000000
	Host/Adsorbate charge-charge Fourier energy:                  0.00000000
	Host/Adsorbate charge-bonddipole Real energy:                 0.00000000
	Host/Adsorbate charge-bonddipole Fourier energy:              0.00000000
	Host/Adsorbate bondipole-bonddipole Real energy:              0.00000000
	Host/Adsorbate bondipole-bonddipole Fourier energy:           0.00000000

Host/Cation energy:                                           0.00000000
	Host/Cation VDW energy:                                       0.00000000
	Host/Cation Coulomb energy:                                   0.00000000
	Host/Cation charge-charge Real energy:                        0.00000000
	Host/Cation charge-charge Fourier energy:                     0.00000000
	Host/Cation charge-bonddipole Real energy:                    0.00000000
	Host/Cation charge-bonddipole Fourier energy:                 0.00000000
	Host/Cation bondipole-bonddipole Real energy:                 0.00000000
	Host/Cation bondipole-bonddipole Fourier energy:              0.00000000

Adsorbate/Adsorbate energy:                                        0.00000000
	Adsorbate/Adsorbate VDW energy:                                    0.00000000
	Adsorbate/Adsorbate Coulomb energy:                                0.00000000
	Adsorbate/Adsorbate charge-charge Real energy:                     0.00000000
	Adsorbate/Adsorbate charge-charge Fourier energy:                  0.00000000
	Adsorbate/Adsorbate charge-bonddipole Real energy:                 0.00000000
	Adsorbate/Adsorbate charge-bonddipole Fourier energy:              0.00000000
	Adsorbate/Adsorbate bondipole-bonddipole Real energy:              0.00000000
	Adsorbate/Adsorbate bondipole-bonddipole Fourier energy:           0.00000000

Adsorbate/Cation energy:                                           0.00000000
	Adsorbate/Cation VDW energy:                                       0.00000000
	Adsorbate/Cation Coulomb energy:                                   0.00000000
	Adsorbate/Cation charge-charge Real energy:                        0.00000000
	Adsorbate/Cation charge-charge Fourier energy:                     0.00000000
	Adsorbate/Cation charge-bonddipole Real energy:                    0.00000000
	Adsorbate/Cation charge-bonddipole Fourier energy:                 0.00000000
	Adsorbate/Cation bondipole-bonddipole Real energy:                 0.00000000
	Adsorbate/Cation bondipole-bonddipole Fourier energy:              0.00000000

Cation/Cation energy:                                           0.00000000
	Cation/Cation VDW energy:                                       0.00000000
	Cation/Cation Coulomb energy:                                   0.00000000
	Cation/Cation charge-charge Real energy:                        0.00000000
	Cation/Cation charge-charge Fourier energy:                     0.00000000
	Cation/Cation charge-bonddipole Real energy:                    0.00000000
	Cation/Cation charge-bonddipole Fourier energy:                 0.00000000
	Cation/Cation bondipole-bonddipole Real energy:                 0.00000000
	Cation/Cation bondipole-bonddipole Fourier energy:              0.00000000

Polarization energy:
	Host polarization energy:                                     0.00000000
	Adsorbate polarization energy:                                0.00000000
	Cation polarization energy:                                   0.00000000
	Host back-polarization energy:                                     0.00000000
	Adsorbate back-polarization energy:                                0.00000000
	Cation back-polarization energy:                                   0.00000000

Tail-correction energy:                                       0.00000000

Distance constraints energy:                                  0.00000000
Angle constraints energy:                                     0.00000000
Dihedral constraints energy:                                  0.00000000
Inversion-bend constraints energy:                            0.00000000
Out-of-plane distance constraints energy:                     0.00000000
Exclusion constraints energy:                                 0.00000000

===================================================================
Total energy:     0.000000000000
	Total Van der Waals: 0.000000
	Total Coulomb: 0.000000

	Total Polarization: 0.000000







+++++++++++++++++++++++++++++++++++++++++++++++++++++++++++++++++++++++++
Starting simulation
+++++++++++++++++++++++++++++++++++++++++++++++++++++++++++++++++++++++++

[Init] Current cycle: 0 out of 50000
========================================================================================================

Net charge: 0 (F: 0, A: 0, C: 0)
Current Box:  41.04183 -20.52091   0.00000 [A]
               0.00000  35.54327   0.00000 [A]
               0.00000   0.00000  44.16007 [A]
Box-lengths:  41.04183  41.04183  44.16007 Box-angles:   90.00000  90.00000 120.00000 [degrees]
Volume: 64418.97631 [A^3]

Loadings per component:
----------------------------------------------------------------------------------------------------------------------------------------------------
Component 0 (argon), current number of integer/fractional/reaction molecules: 0/0/0, density:   0.00000 [kg/m^3]
	absolute adsorption:   0.00000 [mol/uc],         0.0000 [mol/kg],              0.0000 [mg/g]
	                                                 0.0000 [cm^3 STP/g],          0.0000 [cm^3 STP/cm^3]
	excess adsorption:     0.00000 [mol/uc],         0.0000 [mol/kg],              0.0000 [mg/g]
	                                                 0.0000 [cm^3 STP/g],          0.0000 [cm^3 STP/cm^3]
----------------------------------------------------------------------------------------------------------------------------------------------------
Degrees of freedom: 0 0 0 0
Number of Framework-atoms:   2916
Number of Adsorbates:           0 (0 integer, 0 fractional, 0 reaction)
Number of Cations:              0 (0 integer, 0 fractional, 0 reaction

Current total potential energy:                 0.0000000000 [K]
	Current Host-Host energy:                     0.0000000000 [K]
	Current Host-Adsorbate energy:                0.0000000000 [K]
	Current Host-Cation energy:                   0.0000000000 [K]
	Current Adsorbate-Adsorbate energy:           0.0000000000 [K]
	Current Cation-Cation energy:                 0.0000000000 [K]
	Current Adsorbate-Cation energy:              0.0000000000 [K]



[Init] Current cycle: 500 out of 50000
========================================================================================================

Net charge: 0 (F: 0, A: 0, C: 0)
Current Box:  41.04183 -20.52091   0.00000 [A]
               0.00000  35.54327   0.00000 [A]
               0.00000   0.00000  44.16007 [A]
Box-lengths:  41.04183  41.04183  44.16007 Box-angles:   90.00000  90.00000 120.00000 [degrees]
Volume: 64418.97631 [A^3]

Loadings per component:
----------------------------------------------------------------------------------------------------------------------------------------------------
Component 0 (argon), current number of integer/fractional/reaction molecules: 525/0/0, density: 540.61728 [kg/m^3]
	absolute adsorption:  58.33333 [mol/uc],         8.9894 [mol/kg],            359.1096 [mg/g]
	                                               201.4888 [cm^3 STP/g],        303.3286 [cm^3 STP/cm^3]
	excess adsorption:    58.33333 [mol/uc],         8.9894 [mol/kg],            359.1096 [mg/g]
	                                               201.4888 [cm^3 STP/g],        303.3286 [cm^3 STP/cm^3]
----------------------------------------------------------------------------------------------------------------------------------------------------
Degrees of freedom: 1575 0 1575 0
Number of Framework-atoms:   2916
Number of Adsorbates:         525 (525 integer, 0 fractional, 0 reaction)
Number of Cations:              0 (0 integer, 0 fractional, 0 reaction

Current total potential energy:          -1309333.9172480176 [K]
	Current Host-Host energy:                     0.0000000000 [K]
	Current Host-Adsorbate energy:         -1189575.1762572806 [K]
	Current Host-Cation energy:                   0.0000000000 [K]
	Current Adsorbate-Adsorbate energy:     -119758.7409907304 [K]
	Current Cation-Cation energy:                 0.0000000000 [K]
	Current Adsorbate-Cation energy:              0.0000000000 [K]



[Init] Current cycle: 1000 out of 50000
========================================================================================================

Net charge: 0 (F: 0, A: 0, C: 0)
Current Box:  41.04183 -20.52091   0.00000 [A]
               0.00000  35.54327   0.00000 [A]
               0.00000   0.00000  44.16007 [A]
Box-lengths:  41.04183  41.04183  44.16007 Box-angles:   90.00000  90.00000 120.00000 [degrees]
Volume: 64418.97631 [A^3]

Loadings per component:
----------------------------------------------------------------------------------------------------------------------------------------------------
Component 0 (argon), current number of integer/fractional/reaction molecules: 540/0/0, density: 556.06348 [kg/m^3]
	absolute adsorption:  60.00000 [mol/uc],         9.2463 [mol/kg],            369.3699 [mg/g]
	                                               207.2456 [cm^3 STP/g],        311.9952 [cm^3 STP/cm^3]
	excess adsorption:    60.00000 [mol/uc],         9.2463 [mol/kg],            369.3699 [mg/g]
	                                               207.2456 [cm^3 STP/g],        311.9952 [cm^3 STP/cm^3]
----------------------------------------------------------------------------------------------------------------------------------------------------
Degrees of freedom: 1620 0 1620 0
Number of Framework-atoms:   2916
Number of Adsorbates:         540 (540 integer, 0 fractional, 0 reaction)
Number of Cations:              0 (0 integer, 0 fractional, 0 reaction

Current total potential energy:          -1359809.4195346532 [K]
	Current Host-Host energy:                     0.0000000000 [K]
	Current Host-Adsorbate energy:         -1232364.9759024396 [K]
	Current Host-Cation energy:                   0.0000000000 [K]
	Current Adsorbate-Adsorbate energy:     -127444.4436322124 [K]
	Current Cation-Cation energy:                 0.0000000000 [K]
	Current Adsorbate-Cation energy:              0.0000000000 [K]



[Init] Current cycle: 1500 out of 50000
========================================================================================================

Net charge: 0 (F: 0, A: 0, C: 0)
Current Box:  41.04183 -20.52091   0.00000 [A]
               0.00000  35.54327   0.00000 [A]
               0.00000   0.00000  44.16007 [A]
Box-lengths:  41.04183  41.04183  44.16007 Box-angles:   90.00000  90.00000 120.00000 [degrees]
Volume: 64418.97631 [A^3]

Loadings per component:
----------------------------------------------------------------------------------------------------------------------------------------------------
Component 0 (argon), current number of integer/fractional/reaction molecules: 560/0/0, density: 576.65843 [kg/m^3]
	absolute adsorption:  62.22222 [mol/uc],         9.5887 [mol/kg],            383.0503 [mg/g]
	                                               214.9214 [cm^3 STP/g],        323.5505 [cm^3 STP/cm^3]
	excess adsorption:    62.22222 [mol/uc],         9.5887 [mol/kg],            383.0503 [mg/g]
	                                               214.9214 [cm^3 STP/g],        323.5505 [cm^3 STP/cm^3]
----------------------------------------------------------------------------------------------------------------------------------------------------
Degrees of freedom: 1680 0 1680 0
Number of Framework-atoms:   2916
Number of Adsorbates:         560 (560 integer, 0 fractional, 0 reaction)
Number of Cations:              0 (0 integer, 0 fractional, 0 reaction

Current total potential energy:          -1402990.0500164812 [K]
	Current Host-Host energy:                     0.0000000000 [K]
	Current Host-Adsorbate energy:         -1264362.9796208744 [K]
	Current Host-Cation energy:                   0.0000000000 [K]
	Current Adsorbate-Adsorbate energy:     -138627.0703955947 [K]
	Current Cation-Cation energy:                 0.0000000000 [K]
	Current Adsorbate-Cation energy:              0.0000000000 [K]



[Init] Current cycle: 2000 out of 50000
========================================================================================================

Net charge: 0 (F: 0, A: 0, C: 0)
Current Box:  41.04183 -20.52091   0.00000 [A]
               0.00000  35.54327   0.00000 [A]
               0.00000   0.00000  44.16007 [A]
Box-lengths:  41.04183  41.04183  44.16007 Box-angles:   90.00000  90.00000 120.00000 [degrees]
Volume: 64418.97631 [A^3]

Loadings per component:
----------------------------------------------------------------------------------------------------------------------------------------------------
Component 0 (argon), current number of integer/fractional/reaction molecules: 568/0/0, density: 584.89640 [kg/m^3]
	absolute adsorption:  63.11111 [mol/uc],         9.7257 [mol/kg],            388.5224 [mg/g]
	                                               217.9917 [cm^3 STP/g],        328.1727 [cm^3 STP/cm^3]
	excess adsorption:    63.11111 [mol/uc],         9.7257 [mol/kg],            388.5224 [mg/g]
	                                               217.9917 [cm^3 STP/g],        328.1727 [cm^3 STP/cm^3]
----------------------------------------------------------------------------------------------------------------------------------------------------
Degrees of freedom: 1704 0 1704 0
Number of Framework-atoms:   2916
Number of Adsorbates:         568 (568 integer, 0 fractional, 0 reaction)
Number of Cations:              0 (0 integer, 0 fractional, 0 reaction

Current total potential energy:          -1424675.3437213742 [K]
	Current Host-Host energy:                     0.0000000000 [K]
	Current Host-Adsorbate energy:         -1286297.3392299367 [K]
	Current Host-Cation energy:                   0.0000000000 [K]
	Current Adsorbate-Adsorbate energy:     -138378.0044914288 [K]
	Current Cation-Cation energy:                 0.0000000000 [K]
	Current Adsorbate-Cation energy:              0.0000000000 [K]



[Init] Current cycle: 2500 out of 50000
========================================================================================================

Net charge: 0 (F: 0, A: 0, C: 0)
Current Box:  41.04183 -20.52091   0.00000 [A]
               0.00000  35.54327   0.00000 [A]
               0.00000   0.00000  44.16007 [A]
Box-lengths:  41.04183  41.04183  44.16007 Box-angles:   90.00000  90.00000 120.00000 [degrees]
Volume: 64418.97631 [A^3]

Loadings per component:
----------------------------------------------------------------------------------------------------------------------------------------------------
Component 0 (argon), current number of integer/fractional/reaction molecules: 581/0/0, density: 598.28312 [kg/m^3]
	absolute adsorption:  64.55556 [mol/uc],         9.9483 [mol/kg],            397.4147 [mg/g]
	                                               222.9809 [cm^3 STP/g],        335.6837 [cm^3 STP/cm^3]
	excess adsorption:    64.55556 [mol/uc],         9.9483 [mol/kg],            397.4147 [mg/g]
	                                               222.9809 [cm^3 STP/g],        335.6837 [cm^3 STP/cm^3]
----------------------------------------------------------------------------------------------------------------------------------------------------
Degrees of freedom: 1743 0 1743 0
Number of Framework-atoms:   2916
Number of Adsorbates:         581 (581 integer, 0 fractional, 0 reaction)
Number of Cations:              0 (0 integer, 0 fractional, 0 reaction

Current total potential energy:          -1454381.5435670330 [K]
	Current Host-Host energy:                     0.0000000000 [K]
	Current Host-Adsorbate energy:         -1311883.1084326571 [K]
	Current Host-Cation energy:                   0.0000000000 [K]
	Current Adsorbate-Adsorbate energy:     -142498.4351343804 [K]
	Current Cation-Cation energy:                 0.0000000000 [K]
	Current Adsorbate-Cation energy:              0.0000000000 [K]



[Init] Current cycle: 3000 out of 50000
========================================================================================================

Net charge: 0 (F: 0, A: 0, C: 0)
Current Box:  41.04183 -20.52091   0.00000 [A]
               0.00000  35.54327   0.00000 [A]
               0.00000   0.00000  44.16007 [A]
Box-lengths:  41.04183  41.04183  44.16007 Box-angles:   90.00000  90.00000 120.00000 [degrees]
Volume: 64418.97631 [A^3]

Loadings per component:
----------------------------------------------------------------------------------------------------------------------------------------------------
Component 0 (argon), current number of integer/fractional/reaction molecules: 585/0/0, density: 602.40211 [kg/m^3]
	absolute adsorption:  65.00000 [mol/uc],        10.0168 [mol/kg],            400.1508 [mg/g]
	                                               224.5161 [cm^3 STP/g],        337.9947 [cm^3 STP/cm^3]
	excess adsorption:    65.00000 [mol/uc],        10.0168 [mol/kg],            400.1508 [mg/g]
	                                               224.5161 [cm^3 STP/g],        337.9947 [cm^3 STP/cm^3]
----------------------------------------------------------------------------------------------------------------------------------------------------
Degrees of freedom: 1755 0 1755 0
Number of Framework-atoms:   2916
Number of Adsorbates:         585 (585 integer, 0 fractional, 0 reaction)
Number of Cations:              0 (0 integer, 0 fractional, 0 reaction

Current total potential energy:          -1473711.8123788412 [K]
	Current Host-Host energy:                     0.0000000000 [K]
	Current Host-Adsorbate energy:         -1327610.0455261176 [K]
	Current Host-Cation energy:                   0.0000000000 [K]
	Current Adsorbate-Adsorbate energy:     -146101.7668527243 [K]
	Current Cation-Cation energy:                 0.0000000000 [K]
	Current Adsorbate-Cation energy:              0.0000000000 [K]



[Init] Current cycle: 3500 out of 50000
========================================================================================================

Net charge: 0 (F: 0, A: 0, C: 0)
Current Box:  41.04183 -20.52091   0.00000 [A]
               0.00000  35.54327   0.00000 [A]
               0.00000   0.00000  44.16007 [A]
Box-lengths:  41.04183  41.04183  44.16007 Box-angles:   90.00000  90.00000 120.00000 [degrees]
Volume: 64418.97631 [A^3]

Loadings per component:
----------------------------------------------------------------------------------------------------------------------------------------------------
Component 0 (argon), current number of integer/fractional/reaction molecules: 601/0/0, density: 618.87806 [kg/m^3]
	absolute adsorption:  66.77778 [mol/uc],        10.2908 [mol/kg],            411.0950 [mg/g]
	                                               230.6567 [cm^3 STP/g],        347.2390 [cm^3 STP/cm^3]
	excess adsorption:    66.77778 [mol/uc],        10.2908 [mol/kg],            411.0950 [mg/g]
	                                               230.6567 [cm^3 STP/g],        347.2390 [cm^3 STP/cm^3]
----------------------------------------------------------------------------------------------------------------------------------------------------
Degrees of freedom: 1803 0 1803 0
Number of Framework-atoms:   2916
Number of Adsorbates:         601 (601 integer, 0 fractional, 0 reaction)
Number of Cations:              0 (0 integer, 0 fractional, 0 reaction

Current total potential energy:          -1507498.2447981224 [K]
	Current Host-Host energy:                     0.0000000000 [K]
	Current Host-Adsorbate energy:         -1356567.4346810903 [K]
	Current Host-Cation energy:                   0.0000000000 [K]
	Current Adsorbate-Adsorbate energy:     -150930.8101170258 [K]
	Current Cation-Cation energy:                 0.0000000000 [K]
	Current Adsorbate-Cation energy:              0.0000000000 [K]



[Init] Current cycle: 4000 out of 50000
========================================================================================================

Net charge: 0 (F: 0, A: 0, C: 0)
Current Box:  41.04183 -20.52091   0.00000 [A]
               0.00000  35.54327   0.00000 [A]
               0.00000   0.00000  44.16007 [A]
Box-lengths:  41.04183  41.04183  44.16007 Box-angles:   90.00000  90.00000 120.00000 [degrees]
Volume: 64418.97631 [A^3]

Loadings per component:
----------------------------------------------------------------------------------------------------------------------------------------------------
Component 0 (argon), current number of integer/fractional/reaction molecules: 610/0/0, density: 628.14579 [kg/m^3]
	absolute adsorption:  67.77778 [mol/uc],        10.4449 [mol/kg],            417.2512 [mg/g]
	                                               234.1108 [cm^3 STP/g],        352.4390 [cm^3 STP/cm^3]
	excess adsorption:    67.77778 [mol/uc],        10.4449 [mol/kg],            417.2512 [mg/g]
	                                               234.1108 [cm^3 STP/g],        352.4390 [cm^3 STP/cm^3]
----------------------------------------------------------------------------------------------------------------------------------------------------
Degrees of freedom: 1830 0 1830 0
Number of Framework-atoms:   2916
Number of Adsorbates:         610 (610 integer, 0 fractional, 0 reaction)
Number of Cations:              0 (0 integer, 0 fractional, 0 reaction

Current total potential energy:          -1524113.2001507804 [K]
	Current Host-Host energy:                     0.0000000000 [K]
	Current Host-Adsorbate energy:         -1370561.8279524837 [K]
	Current Host-Cation energy:                   0.0000000000 [K]
	Current Adsorbate-Adsorbate energy:     -153551.3721982641 [K]
	Current Cation-Cation energy:                 0.0000000000 [K]
	Current Adsorbate-Cation energy:              0.0000000000 [K]



[Init] Current cycle: 4500 out of 50000
========================================================================================================

Net charge: 0 (F: 0, A: 0, C: 0)
Current Box:  41.04183 -20.52091   0.00000 [A]
               0.00000  35.54327   0.00000 [A]
               0.00000   0.00000  44.16007 [A]
Box-lengths:  41.04183  41.04183  44.16007 Box-angles:   90.00000  90.00000 120.00000 [degrees]
Volume: 64418.97631 [A^3]

Loadings per component:
----------------------------------------------------------------------------------------------------------------------------------------------------
Component 0 (argon), current number of integer/fractional/reaction molecules: 626/0/0, density: 644.62174 [kg/m^3]
	absolute adsorption:  69.55556 [mol/uc],        10.7188 [mol/kg],            428.1955 [mg/g]
	                                               240.2514 [cm^3 STP/g],        361.6833 [cm^3 STP/cm^3]
	excess adsorption:    69.55556 [mol/uc],        10.7188 [mol/kg],            428.1955 [mg/g]
	                                               240.2514 [cm^3 STP/g],        361.6833 [cm^3 STP/cm^3]
----------------------------------------------------------------------------------------------------------------------------------------------------
Degrees of freedom: 1878 0 1878 0
Number of Framework-atoms:   2916
Number of Adsorbates:         626 (626 integer, 0 fractional, 0 reaction)
Number of Cations:              0 (0 integer, 0 fractional, 0 reaction

Current total potential energy:          -1560256.5285210309 [K]
	Current Host-Host energy:                     0.0000000000 [K]
	Current Host-Adsorbate energy:         -1409343.6538354624 [K]
	Current Host-Cation energy:                   0.0000000000 [K]
	Current Adsorbate-Adsorbate energy:     -150912.8746855304 [K]
	Current Cation-Cation energy:                 0.0000000000 [K]
	Current Adsorbate-Cation energy:              0.0000000000 [K]



[Init] Current cycle: 5000 out of 50000
========================================================================================================

Net charge: 0 (F: 0, A: 0, C: 0)
Current Box:  41.04183 -20.52091   0.00000 [A]
               0.00000  35.54327   0.00000 [A]
               0.00000   0.00000  44.16007 [A]
Box-lengths:  41.04183  41.04183  44.16007 Box-angles:   90.00000  90.00000 120.00000 [degrees]
Volume: 64418.97631 [A^3]

Loadings per component:
----------------------------------------------------------------------------------------------------------------------------------------------------
Component 0 (argon), current number of integer/fractional/reaction molecules: 634/0/0, density: 652.85972 [kg/m^3]
	absolute adsorption:  70.44444 [mol/uc],        10.8558 [mol/kg],            433.6677 [mg/g]
	                                               243.3217 [cm^3 STP/g],        366.3054 [cm^3 STP/cm^3]
	excess adsorption:    70.44444 [mol/uc],        10.8558 [mol/kg],            433.6677 [mg/g]
	                                               243.3217 [cm^3 STP/g],        366.3054 [cm^3 STP/cm^3]
----------------------------------------------------------------------------------------------------------------------------------------------------
Degrees of freedom: 1902 0 1902 0
Number of Framework-atoms:   2916
Number of Adsorbates:         634 (634 integer, 0 fractional, 0 reaction)
Number of Cations:              0 (0 integer, 0 fractional, 0 reaction

Current total potential energy:          -1579485.3261386615 [K]
	Current Host-Host energy:                     0.0000000000 [K]
	Current Host-Adsorbate energy:         -1424113.1174037717 [K]
	Current Host-Cation energy:                   0.0000000000 [K]
	Current Adsorbate-Adsorbate energy:     -155372.2087348434 [K]
	Current Cation-Cation energy:                 0.0000000000 [K]
	Current Adsorbate-Cation energy:              0.0000000000 [K]



[Init] Current cycle: 5500 out of 50000
========================================================================================================

Net charge: 0 (F: 0, A: 0, C: 0)
Current Box:  41.04183 -20.52091   0.00000 [A]
               0.00000  35.54327   0.00000 [A]
               0.00000   0.00000  44.16007 [A]
Box-lengths:  41.04183  41.04183  44.16007 Box-angles:   90.00000  90.00000 120.00000 [degrees]
Volume: 64418.97631 [A^3]

Loadings per component:
----------------------------------------------------------------------------------------------------------------------------------------------------
Component 0 (argon), current number of integer/fractional/reaction molecules: 639/0/0, density: 658.00846 [kg/m^3]
	absolute adsorption:  71.00000 [mol/uc],        10.9414 [mol/kg],            437.0877 [mg/g]
	                                               245.2407 [cm^3 STP/g],        369.1943 [cm^3 STP/cm^3]
	excess adsorption:    71.00000 [mol/uc],        10.9414 [mol/kg],            437.0877 [mg/g]
	                                               245.2407 [cm^3 STP/g],        369.1943 [cm^3 STP/cm^3]
----------------------------------------------------------------------------------------------------------------------------------------------------
Degrees of freedom: 1917 0 1917 0
Number of Framework-atoms:   2916
Number of Adsorbates:         639 (639 integer, 0 fractional, 0 reaction)
Number of Cations:              0 (0 integer, 0 fractional, 0 reaction

Current total potential energy:          -1592899.4906862953 [K]
	Current Host-Host energy:                     0.0000000000 [K]
	Current Host-Adsorbate energy:         -1434159.5407309323 [K]
	Current Host-Cation energy:                   0.0000000000 [K]
	Current Adsorbate-Adsorbate energy:     -158739.9499553284 [K]
	Current Cation-Cation energy:                 0.0000000000 [K]
	Current Adsorbate-Cation energy:              0.0000000000 [K]



[Init] Current cycle: 6000 out of 50000
========================================================================================================

Net charge: 0 (F: 0, A: 0, C: 0)
Current Box:  41.04183 -20.52091   0.00000 [A]
               0.00000  35.54327   0.00000 [A]
               0.00000   0.00000  44.16007 [A]
Box-lengths:  41.04183  41.04183  44.16007 Box-angles:   90.00000  90.00000 120.00000 [degrees]
Volume: 64418.97631 [A^3]

Loadings per component:
----------------------------------------------------------------------------------------------------------------------------------------------------
Component 0 (argon), current number of integer/fractional/reaction molecules: 647/0/0, density: 666.24643 [kg/m^3]
	absolute adsorption:  71.88889 [mol/uc],        11.0784 [mol/kg],            442.5599 [mg/g]
	                                               248.3110 [cm^3 STP/g],        373.8164 [cm^3 STP/cm^3]
	excess adsorption:    71.88889 [mol/uc],        11.0784 [mol/kg],            442.5599 [mg/g]
	                                               248.3110 [cm^3 STP/g],        373.8164 [cm^3 STP/cm^3]
----------------------------------------------------------------------------------------------------------------------------------------------------
Degrees of freedom: 1941 0 1941 0
Number of Framework-atoms:   2916
Number of Adsorbates:         647 (647 integer, 0 fractional, 0 reaction)
Number of Cations:              0 (0 integer, 0 fractional, 0 reaction

Current total potential energy:          -1615042.2308029188 [K]
	Current Host-Host energy:                     0.0000000000 [K]
	Current Host-Adsorbate energy:         -1449745.6249030640 [K]
	Current Host-Cation energy:                   0.0000000000 [K]
	Current Adsorbate-Adsorbate energy:     -165296.6058998150 [K]
	Current Cation-Cation energy:                 0.0000000000 [K]
	Current Adsorbate-Cation energy:              0.0000000000 [K]



[Init] Current cycle: 6500 out of 50000
========================================================================================================

Net charge: 0 (F: 0, A: 0, C: 0)
Current Box:  41.04183 -20.52091   0.00000 [A]
               0.00000  35.54327   0.00000 [A]
               0.00000   0.00000  44.16007 [A]
Box-lengths:  41.04183  41.04183  44.16007 Box-angles:   90.00000  90.00000 120.00000 [degrees]
Volume: 64418.97631 [A^3]

Loadings per component:
----------------------------------------------------------------------------------------------------------------------------------------------------
Component 0 (argon), current number of integer/fractional/reaction molecules: 653/0/0, density: 672.42492 [kg/m^3]
	absolute adsorption:  72.55556 [mol/uc],        11.1811 [mol/kg],            446.6640 [mg/g]
	                                               250.6137 [cm^3 STP/g],        377.2830 [cm^3 STP/cm^3]
	excess adsorption:    72.55556 [mol/uc],        11.1811 [mol/kg],            446.6640 [mg/g]
	                                               250.6137 [cm^3 STP/g],        377.2830 [cm^3 STP/cm^3]
----------------------------------------------------------------------------------------------------------------------------------------------------
Degrees of freedom: 1959 0 1959 0
Number of Framework-atoms:   2916
Number of Adsorbates:         653 (653 integer, 0 fractional, 0 reaction)
Number of Cations:              0 (0 integer, 0 fractional, 0 reaction

Current total potential energy:          -1626369.1749348405 [K]
	Current Host-Host energy:                     0.0000000000 [K]
	Current Host-Adsorbate energy:         -1462928.5118284570 [K]
	Current Host-Cation energy:                   0.0000000000 [K]
	Current Adsorbate-Adsorbate energy:     -163440.6631063426 [K]
	Current Cation-Cation energy:                 0.0000000000 [K]
	Current Adsorbate-Cation energy:              0.0000000000 [K]



[Init] Current cycle: 7000 out of 50000
========================================================================================================

Net charge: 0 (F: 0, A: 0, C: 0)
Current Box:  41.04183 -20.52091   0.00000 [A]
               0.00000  35.54327   0.00000 [A]
               0.00000   0.00000  44.16007 [A]
Box-lengths:  41.04183  41.04183  44.16007 Box-angles:   90.00000  90.00000 120.00000 [degrees]
Volume: 64418.97631 [A^3]

Loadings per component:
----------------------------------------------------------------------------------------------------------------------------------------------------
Component 0 (argon), current number of integer/fractional/reaction molecules: 659/0/0, density: 678.60340 [kg/m^3]
	absolute adsorption:  73.22222 [mol/uc],        11.2839 [mol/kg],            450.7681 [mg/g]
	                                               252.9164 [cm^3 STP/g],        380.7496 [cm^3 STP/cm^3]
	excess adsorption:    73.22222 [mol/uc],        11.2839 [mol/kg],            450.7681 [mg/g]
	                                               252.9164 [cm^3 STP/g],        380.7496 [cm^3 STP/cm^3]
----------------------------------------------------------------------------------------------------------------------------------------------------
Degrees of freedom: 1977 0 1977 0
Number of Framework-atoms:   2916
Number of Adsorbates:         659 (659 integer, 0 fractional, 0 reaction)
Number of Cations:              0 (0 integer, 0 fractional, 0 reaction

Current total potential energy:          -1633483.4323542702 [K]
	Current Host-Host energy:                     0.0000000000 [K]
	Current Host-Adsorbate energy:         -1468616.2807090634 [K]
	Current Host-Cation energy:                   0.0000000000 [K]
	Current Adsorbate-Adsorbate energy:     -164867.1516451395 [K]
	Current Cation-Cation energy:                 0.0000000000 [K]
	Current Adsorbate-Cation energy:              0.0000000000 [K]



[Init] Current cycle: 7500 out of 50000
========================================================================================================

Net charge: 0 (F: 0, A: 0, C: 0)
Current Box:  41.04183 -20.52091   0.00000 [A]
               0.00000  35.54327   0.00000 [A]
               0.00000   0.00000  44.16007 [A]
Box-lengths:  41.04183  41.04183  44.16007 Box-angles:   90.00000  90.00000 120.00000 [degrees]
Volume: 64418.97631 [A^3]

Loadings per component:
----------------------------------------------------------------------------------------------------------------------------------------------------
Component 0 (argon), current number of integer/fractional/reaction molecules: 664/0/0, density: 683.75213 [kg/m^3]
	absolute adsorption:  73.77778 [mol/uc],        11.3695 [mol/kg],            454.1882 [mg/g]
	                                               254.8354 [cm^3 STP/g],        383.6385 [cm^3 STP/cm^3]
	excess adsorption:    73.77778 [mol/uc],        11.3695 [mol/kg],            454.1882 [mg/g]
	                                               254.8354 [cm^3 STP/g],        383.6385 [cm^3 STP/cm^3]
----------------------------------------------------------------------------------------------------------------------------------------------------
Degrees of freedom: 1992 0 1992 0
Number of Framework-atoms:   2916
Number of Adsorbates:         664 (664 integer, 0 fractional, 0 reaction)
Number of Cations:              0 (0 integer, 0 fractional, 0 reaction

Current total potential energy:          -1644431.0480424820 [K]
	Current Host-Host energy:                     0.0000000000 [K]
	Current Host-Adsorbate energy:         -1480006.7580719450 [K]
	Current Host-Cation energy:                   0.0000000000 [K]
	Current Adsorbate-Adsorbate energy:     -164424.2899705064 [K]
	Current Cation-Cation energy:                 0.0000000000 [K]
	Current Adsorbate-Cation energy:              0.0000000000 [K]



[Init] Current cycle: 8000 out of 50000
========================================================================================================

Net charge: 0 (F: 0, A: 0, C: 0)
Current Box:  41.04183 -20.52091   0.00000 [A]
               0.00000  35.54327   0.00000 [A]
               0.00000   0.00000  44.16007 [A]
Box-lengths:  41.04183  41.04183  44.16007 Box-angles:   90.00000  90.00000 120.00000 [degrees]
Volume: 64418.97631 [A^3]

Loadings per component:
----------------------------------------------------------------------------------------------------------------------------------------------------
Component 0 (argon), current number of integer/fractional/reaction molecules: 668/0/0, density: 687.87112 [kg/m^3]
	absolute adsorption:  74.22222 [mol/uc],        11.4380 [mol/kg],            456.9243 [mg/g]
	                                               256.3705 [cm^3 STP/g],        385.9496 [cm^3 STP/cm^3]
	excess adsorption:    74.22222 [mol/uc],        11.4380 [mol/kg],            456.9243 [mg/g]
	                                               256.3705 [cm^3 STP/g],        385.9496 [cm^3 STP/cm^3]
----------------------------------------------------------------------------------------------------------------------------------------------------
Degrees of freedom: 2004 0 2004 0
Number of Framework-atoms:   2916
Number of Adsorbates:         668 (668 integer, 0 fractional, 0 reaction)
Number of Cations:              0 (0 integer, 0 fractional, 0 reaction

Current total potential energy:          -1656651.8310819573 [K]
	Current Host-Host energy:                     0.0000000000 [K]
	Current Host-Adsorbate energy:         -1488419.8262639516 [K]
	Current Host-Cation energy:                   0.0000000000 [K]
	Current Adsorbate-Adsorbate energy:     -168232.0048179531 [K]
	Current Cation-Cation energy:                 0.0000000000 [K]
	Current Adsorbate-Cation energy:              0.0000000000 [K]



[Init] Current cycle: 8500 out of 50000
========================================================================================================

Net charge: 0 (F: 0, A: 0, C: 0)
Current Box:  41.04183 -20.52091   0.00000 [A]
               0.00000  35.54327   0.00000 [A]
               0.00000   0.00000  44.16007 [A]
Box-lengths:  41.04183  41.04183  44.16007 Box-angles:   90.00000  90.00000 120.00000 [degrees]
Volume: 64418.97631 [A^3]

Loadings per component:
----------------------------------------------------------------------------------------------------------------------------------------------------
Component 0 (argon), current number of integer/fractional/reaction molecules: 671/0/0, density: 690.96037 [kg/m^3]
	absolute adsorption:  74.55556 [mol/uc],        11.4893 [mol/kg],            458.9763 [mg/g]
	                                               257.5219 [cm^3 STP/g],        387.6829 [cm^3 STP/cm^3]
	excess adsorption:    74.55556 [mol/uc],        11.4893 [mol/kg],            458.9763 [mg/g]
	                                               257.5219 [cm^3 STP/g],        387.6829 [cm^3 STP/cm^3]
----------------------------------------------------------------------------------------------------------------------------------------------------
Degrees of freedom: 2013 0 2013 0
Number of Framework-atoms:   2916
Number of Adsorbates:         671 (671 integer, 0 fractional, 0 reaction)
Number of Cations:              0 (0 integer, 0 fractional, 0 reaction

Current total potential energy:          -1665559.1516163421 [K]
	Current Host-Host energy:                     0.0000000000 [K]
	Current Host-Adsorbate energy:         -1492590.4708941111 [K]
	Current Host-Cation energy:                   0.0000000000 [K]
	Current Adsorbate-Adsorbate energy:     -172968.6807221975 [K]
	Current Cation-Cation energy:                 0.0000000000 [K]
	Current Adsorbate-Cation energy:              0.0000000000 [K]



[Init] Current cycle: 9000 out of 50000
========================================================================================================

Net charge: 0 (F: 0, A: 0, C: 0)
Current Box:  41.04183 -20.52091   0.00000 [A]
               0.00000  35.54327   0.00000 [A]
               0.00000   0.00000  44.16007 [A]
Box-lengths:  41.04183  41.04183  44.16007 Box-angles:   90.00000  90.00000 120.00000 [degrees]
Volume: 64418.97631 [A^3]

Loadings per component:
----------------------------------------------------------------------------------------------------------------------------------------------------
Component 0 (argon), current number of integer/fractional/reaction molecules: 672/0/0, density: 691.99011 [kg/m^3]
	absolute adsorption:  74.66667 [mol/uc],        11.5065 [mol/kg],            459.6604 [mg/g]
	                                               257.9057 [cm^3 STP/g],        388.2606 [cm^3 STP/cm^3]
	excess adsorption:    74.66667 [mol/uc],        11.5065 [mol/kg],            459.6604 [mg/g]
	                                               257.9057 [cm^3 STP/g],        388.2606 [cm^3 STP/cm^3]
----------------------------------------------------------------------------------------------------------------------------------------------------
Degrees of freedom: 2016 0 2016 0
Number of Framework-atoms:   2916
Number of Adsorbates:         672 (672 integer, 0 fractional, 0 reaction)
Number of Cations:              0 (0 integer, 0 fractional, 0 reaction

Current total potential energy:          -1668669.4479404509 [K]
	Current Host-Host energy:                     0.0000000000 [K]
	Current Host-Adsorbate energy:         -1495919.6901449049 [K]
	Current Host-Cation energy:                   0.0000000000 [K]
	Current Adsorbate-Adsorbate energy:     -172749.7577955134 [K]
	Current Cation-Cation energy:                 0.0000000000 [K]
	Current Adsorbate-Cation energy:              0.0000000000 [K]



[Init] Current cycle: 9500 out of 50000
========================================================================================================

Net charge: 0 (F: 0, A: 0, C: 0)
Current Box:  41.04183 -20.52091   0.00000 [A]
               0.00000  35.54327   0.00000 [A]
               0.00000   0.00000  44.16007 [A]
Box-lengths:  41.04183  41.04183  44.16007 Box-angles:   90.00000  90.00000 120.00000 [degrees]
Volume: 64418.97631 [A^3]

Loadings per component:
----------------------------------------------------------------------------------------------------------------------------------------------------
Component 0 (argon), current number of integer/fractional/reaction molecules: 677/0/0, density: 697.13885 [kg/m^3]
	absolute adsorption:  75.22222 [mol/uc],        11.5921 [mol/kg],            463.0804 [mg/g]
	                                               259.8246 [cm^3 STP/g],        391.1495 [cm^3 STP/cm^3]
	excess adsorption:    75.22222 [mol/uc],        11.5921 [mol/kg],            463.0804 [mg/g]
	                                               259.8246 [cm^3 STP/g],        391.1495 [cm^3 STP/cm^3]
----------------------------------------------------------------------------------------------------------------------------------------------------
Degrees of freedom: 2031 0 2031 0
Number of Framework-atoms:   2916
Number of Adsorbates:         677 (677 integer, 0 fractional, 0 reaction)
Number of Cations:              0 (0 integer, 0 fractional, 0 reaction

Current total potential energy:          -1679639.5016231141 [K]
	Current Host-Host energy:                     0.0000000000 [K]
	Current Host-Adsorbate energy:         -1509070.0904795148 [K]
	Current Host-Cation energy:                   0.0000000000 [K]
	Current Adsorbate-Adsorbate energy:     -170569.4111435985 [K]
	Current Cation-Cation energy:                 0.0000000000 [K]
	Current Adsorbate-Cation energy:              0.0000000000 [K]



[Init] Current cycle: 10000 out of 50000
========================================================================================================

Net charge: 0 (F: 0, A: 0, C: 0)
Current Box:  41.04183 -20.52091   0.00000 [A]
               0.00000  35.54327   0.00000 [A]
               0.00000   0.00000  44.16007 [A]
Box-lengths:  41.04183  41.04183  44.16007 Box-angles:   90.00000  90.00000 120.00000 [degrees]
Volume: 64418.97631 [A^3]

Loadings per component:
----------------------------------------------------------------------------------------------------------------------------------------------------
Component 0 (argon), current number of integer/fractional/reaction molecules: 681/0/0, density: 701.25784 [kg/m^3]
	absolute adsorption:  75.66667 [mol/uc],        11.6606 [mol/kg],            465.8165 [mg/g]
	                                               261.3598 [cm^3 STP/g],        393.4606 [cm^3 STP/cm^3]
	excess adsorption:    75.66667 [mol/uc],        11.6606 [mol/kg],            465.8165 [mg/g]
	                                               261.3598 [cm^3 STP/g],        393.4606 [cm^3 STP/cm^3]
----------------------------------------------------------------------------------------------------------------------------------------------------
Degrees of freedom: 2043 0 2043 0
Number of Framework-atoms:   2916
Number of Adsorbates:         681 (681 integer, 0 fractional, 0 reaction)
Number of Cations:              0 (0 integer, 0 fractional, 0 reaction

Current total potential energy:          -1681954.6837727276 [K]
	Current Host-Host energy:                     0.0000000000 [K]
	Current Host-Adsorbate energy:         -1511341.7604866549 [K]
	Current Host-Cation energy:                   0.0000000000 [K]
	Current Adsorbate-Adsorbate energy:     -170612.9232860892 [K]
	Current Cation-Cation energy:                 0.0000000000 [K]
	Current Adsorbate-Cation energy:              0.0000000000 [K]



[Init] Current cycle: 10500 out of 50000
========================================================================================================

Net charge: 0 (F: 0, A: 0, C: 0)
Current Box:  41.04183 -20.52091   0.00000 [A]
               0.00000  35.54327   0.00000 [A]
               0.00000   0.00000  44.16007 [A]
Box-lengths:  41.04183  41.04183  44.16007 Box-angles:   90.00000  90.00000 120.00000 [degrees]
Volume: 64418.97631 [A^3]

Loadings per component:
----------------------------------------------------------------------------------------------------------------------------------------------------
Component 0 (argon), current number of integer/fractional/reaction molecules: 685/0/0, density: 705.37683 [kg/m^3]
	absolute adsorption:  76.11111 [mol/uc],        11.7291 [mol/kg],            468.5526 [mg/g]
	                                               262.8949 [cm^3 STP/g],        395.7716 [cm^3 STP/cm^3]
	excess adsorption:    76.11111 [mol/uc],        11.7291 [mol/kg],            468.5526 [mg/g]
	                                               262.8949 [cm^3 STP/g],        395.7716 [cm^3 STP/cm^3]
----------------------------------------------------------------------------------------------------------------------------------------------------
Degrees of freedom: 2055 0 2055 0
Number of Framework-atoms:   2916
Number of Adsorbates:         685 (685 integer, 0 fractional, 0 reaction)
Number of Cations:              0 (0 integer, 0 fractional, 0 reaction

Current total potential energy:          -1692691.5340304428 [K]
	Current Host-Host energy:                     0.0000000000 [K]
	Current Host-Adsorbate energy:         -1521284.8746380873 [K]
	Current Host-Cation energy:                   0.0000000000 [K]
	Current Adsorbate-Adsorbate energy:     -171406.6593923587 [K]
	Current Cation-Cation energy:                 0.0000000000 [K]
	Current Adsorbate-Cation energy:              0.0000000000 [K]



[Init] Current cycle: 11000 out of 50000
========================================================================================================

Net charge: 0 (F: 0, A: 0, C: 0)
Current Box:  41.04183 -20.52091   0.00000 [A]
               0.00000  35.54327   0.00000 [A]
               0.00000   0.00000  44.16007 [A]
Box-lengths:  41.04183  41.04183  44.16007 Box-angles:   90.00000  90.00000 120.00000 [degrees]
Volume: 64418.97631 [A^3]

Loadings per component:
----------------------------------------------------------------------------------------------------------------------------------------------------
Component 0 (argon), current number of integer/fractional/reaction molecules: 690/0/0, density: 710.52556 [kg/m^3]
	absolute adsorption:  76.66667 [mol/uc],        11.8147 [mol/kg],            471.9727 [mg/g]
	                                               264.8139 [cm^3 STP/g],        398.6605 [cm^3 STP/cm^3]
	excess adsorption:    76.66667 [mol/uc],        11.8147 [mol/kg],            471.9727 [mg/g]
	                                               264.8139 [cm^3 STP/g],        398.6605 [cm^3 STP/cm^3]
----------------------------------------------------------------------------------------------------------------------------------------------------
Degrees of freedom: 2070 0 2070 0
Number of Framework-atoms:   2916
[...]
	Block[ 1]            0.00000 [K]
	Block[ 2]            0.00000 [K]
	Block[ 3]            0.00000 [K]
	Block[ 4]            0.00000 [K]
	------------------------------------------------------------------------------
	Average              0.00000 [K] +/-            0.00000 [K]

Average Cation Bend angle inversion energy:
===========================================
	Block[ 0]            0.00000 [K]
	Block[ 1]            0.00000 [K]
	Block[ 2]            0.00000 [K]
	Block[ 3]            0.00000 [K]
	Block[ 4]            0.00000 [K]
	------------------------------------------------------------------------------
	Average              0.00000 [K] +/-            0.00000 [K]

Average Cation Torsion energy:
==============================
	Block[ 0]            0.00000 [K]
	Block[ 1]            0.00000 [K]
	Block[ 2]            0.00000 [K]
	Block[ 3]            0.00000 [K]
	Block[ 4]            0.00000 [K]
	------------------------------------------------------------------------------
	Average              0.00000 [K] +/-            0.00000 [K]

Average Cation Improper Torsion energy:
=======================================
	Block[ 0]            0.00000 [K]
	Block[ 1]            0.00000 [K]
	Block[ 2]            0.00000 [K]
	Block[ 3]            0.00000 [K]
	Block[ 4]            0.00000 [K]
	------------------------------------------------------------------------------
	Average              0.00000 [K] +/-            0.00000 [K]

Average Cation Bond-Bond cross term energy:
=================================================
	Block[ 0]            0.00000 [K]
	Block[ 1]            0.00000 [K]
	Block[ 2]            0.00000 [K]
	Block[ 3]            0.00000 [K]
	Block[ 4]            0.00000 [K]
	------------------------------------------------------------------------------
	Average              0.00000 [K] +/-            0.00000 [K]

Average Cation Bend-Bend cross term energy:
===========================================
	Block[ 0]            0.00000 [K]
	Block[ 1]            0.00000 [K]
	Block[ 2]            0.00000 [K]
	Block[ 3]            0.00000 [K]
	Block[ 4]            0.00000 [K]
	------------------------------------------------------------------------------
	Average              0.00000 [K] +/-            0.00000 [K]

Average Cation Bond-Bend cross term energy:
==============================================
	Block[ 0]            0.00000 [K]
	Block[ 1]            0.00000 [K]
	Block[ 2]            0.00000 [K]
	Block[ 3]            0.00000 [K]
	Block[ 4]            0.00000 [K]
	------------------------------------------------------------------------------
	Average              0.00000 [K] +/-            0.00000 [K]

Average Cation Bond-Torsion cross term energy:
==============================================
	Block[ 0]            0.00000 [K]
	Block[ 1]            0.00000 [K]
	Block[ 2]            0.00000 [K]
	Block[ 3]            0.00000 [K]
	Block[ 4]            0.00000 [K]
	------------------------------------------------------------------------------
	Average              0.00000 [K] +/-            0.00000 [K]

Average Cation Bend-Torsion cross term energy:
==============================================
	Block[ 0]            0.00000 [K]
	Block[ 1]            0.00000 [K]
	Block[ 2]            0.00000 [K]
	Block[ 3]            0.00000 [K]
	Block[ 4]            0.00000 [K]
	------------------------------------------------------------------------------
	Average              0.00000 [K] +/-            0.00000 [K]

Average Cation Intra Van der Waals energy:
==========================================
	Block[ 0]            0.00000 [K]
	Block[ 1]            0.00000 [K]
	Block[ 2]            0.00000 [K]
	Block[ 3]            0.00000 [K]
	Block[ 4]            0.00000 [K]
	------------------------------------------------------------------------------
	Average              0.00000 [K] +/-            0.00000 [K]

Average Cation Intra charge-charge Coulomb energy:
====================================
	Block[ 0]            0.00000 [K]
	Block[ 1]            0.00000 [K]
	Block[ 2]            0.00000 [K]
	Block[ 3]            0.00000 [K]
	Block[ 4]            0.00000 [K]
	------------------------------------------------------------------------------
	Average              0.00000 [K] +/-            0.00000 [K]

Average Cation Intra charge-bonddipole Coulomb energy:
====================================
	Block[ 0]            0.00000 [K]
	Block[ 1]            0.00000 [K]
	Block[ 2]            0.00000 [K]
	Block[ 3]            0.00000 [K]
	Block[ 4]            0.00000 [K]
	------------------------------------------------------------------------------
	Average              0.00000 [K] +/-            0.00000 [K]

Average Cation Intra bonddipole-bonddipole Coulomb energy:
====================================
	Block[ 0]            0.00000 [K]
	Block[ 1]            0.00000 [K]
	Block[ 2]            0.00000 [K]
	Block[ 3]            0.00000 [K]
	Block[ 4]            0.00000 [K]
	------------------------------------------------------------------------------
	Average              0.00000 [K] +/-            0.00000 [K]

Average Host-Host energy:
=========================
	Block[ 0] 0.00000            Van der Waals: 0.00000            Coulomb: 0.00000            [K]
	Block[ 1] 0.00000            Van der Waals: 0.00000            Coulomb: 0.00000            [K]
	Block[ 2] 0.00000            Van der Waals: 0.00000            Coulomb: 0.00000            [K]
	Block[ 3] 0.00000            Van der Waals: 0.00000            Coulomb: 0.00000            [K]
	Block[ 4] 0.00000            Van der Waals: 0.00000            Coulomb: 0.00000            [K]
	------------------------------------------------------------------------------
	Average   0.00000            Van der Waals: 0.000000           Coulomb: 0.00000            [K]
	      +/- 0.00000                       +/- 0.000000                +/- 0.00000            [K]

Average Adsorbate-Adsorbate energy:
===================================
	Block[ 0] -206660.74825      Van der Waals: -206660.74825      Coulomb: 0.00000            [K]
	Block[ 1] -206104.06034      Van der Waals: -206104.06034      Coulomb: 0.00000            [K]
	Block[ 2] -206979.13546      Van der Waals: -206979.13546      Coulomb: 0.00000            [K]
	Block[ 3] -207344.45978      Van der Waals: -207344.45978      Coulomb: 0.00000            [K]
	Block[ 4] -207414.60401      Van der Waals: -207414.60401      Coulomb: 0.00000            [K]
	------------------------------------------------------------------------------
	Average   -206900.60157      Van der Waals: -206900.601569     Coulomb: 0.00000            [K]
	      +/- 963.07165                     +/- 963.071646              +/- 0.00000            [K]

Average Cation-Cation energy:
=============================
	Block[ 0] 0.00000            Van der Waals: 0.00000            Coulomb: 0.00000            [K]
	Block[ 1] 0.00000            Van der Waals: 0.00000            Coulomb: 0.00000            [K]
	Block[ 2] 0.00000            Van der Waals: 0.00000            Coulomb: 0.00000            [K]
	Block[ 3] 0.00000            Van der Waals: 0.00000            Coulomb: 0.00000            [K]
	Block[ 4] 0.00000            Van der Waals: 0.00000            Coulomb: 0.00000            [K]
	------------------------------------------------------------------------------
	Average   0.00000            Van der Waals: 0.000000           Coulomb: 0.00000            [K]
	      +/- 0.00000                       +/- 0.000000                +/- 0.00000            [K]

Average Host-Adsorbate energy:
==============================
	Block[ 0] -1675833.44047     Van der Waals: -1675833.44047     Coulomb: 0.00000            [K]
	Block[ 1] -1683838.44103     Van der Waals: -1683838.44103     Coulomb: 0.00000            [K]
	Block[ 2] -1683432.51466     Van der Waals: -1683432.51466     Coulomb: 0.00000            [K]
	Block[ 3] -1683859.89159     Van der Waals: -1683859.89159     Coulomb: 0.00000            [K]
	Block[ 4] -1683701.31147     Van der Waals: -1683701.31147     Coulomb: 0.00000            [K]
	------------------------------------------------------------------------------
	Average   -1682133.11984     Van der Waals: -1682133.119843    Coulomb: 0.00000            [K]
	      +/- 6307.04198                    +/- 6307.041975             +/- 0.00000            [K]

Average Host-Cation energy:
===========================
	Block[ 0] 0.00000            Van der Waals: 0.00000            Coulomb: 0.00000            [K]
	Block[ 1] 0.00000            Van der Waals: 0.00000            Coulomb: 0.00000            [K]
	Block[ 2] 0.00000            Van der Waals: 0.00000            Coulomb: 0.00000            [K]
	Block[ 3] 0.00000            Van der Waals: 0.00000            Coulomb: 0.00000            [K]
	Block[ 4] 0.00000            Van der Waals: 0.00000            Coulomb: 0.00000            [K]
	------------------------------------------------------------------------------
	Average   0.00000            Van der Waals: 0.000000           Coulomb: 0.00000            [K]
	      +/- 0.00000                       +/- 0.000000                +/- 0.00000            [K]

Average Adsorbate-Cation energy:
================================
	Block[ 0] 0.00000            Van der Waals: 0.00000            Coulomb: 0.00000            [K]
	Block[ 1] 0.00000            Van der Waals: 0.00000            Coulomb: 0.00000            [K]
	Block[ 2] 0.00000            Van der Waals: 0.00000            Coulomb: 0.00000            [K]
	Block[ 3] 0.00000            Van der Waals: 0.00000            Coulomb: 0.00000            [K]
	Block[ 4] 0.00000            Van der Waals: 0.00000            Coulomb: 0.00000            [K]
	------------------------------------------------------------------------------
	Average   0.00000            Van der Waals: 0.000000           Coulomb: 0.00000            [K]
	      +/- 0.00000                       +/- 0.000000                +/- 0.00000            [K]

Host polarization energy:
=======================
	Block[ 0]            0.00000 [K]
	Block[ 1]            0.00000 [K]
	Block[ 2]            0.00000 [K]
	Block[ 3]            0.00000 [K]
	Block[ 4]            0.00000 [K]
	------------------------------------------------------------------------------
	Average              0.00000 [K] +/-            0.00000 [K]

Adsorbate polarization energy:
=======================
	Block[ 0]            0.00000 [K]
	Block[ 1]            0.00000 [K]
	Block[ 2]            0.00000 [K]
	Block[ 3]            0.00000 [K]
	Block[ 4]            0.00000 [K]
	------------------------------------------------------------------------------
	Average              0.00000 [K] +/-            0.00000 [K]

Cation polarization energy:
=======================
	Block[ 0]            0.00000 [K]
	Block[ 1]            0.00000 [K]
	Block[ 2]            0.00000 [K]
	Block[ 3]            0.00000 [K]
	Block[ 4]            0.00000 [K]
	------------------------------------------------------------------------------
	Average              0.00000 [K] +/-            0.00000 [K]

Host back-polarization energy:
=======================
	Block[ 0]            0.00000 [K]
	Block[ 1]            0.00000 [K]
	Block[ 2]            0.00000 [K]
	Block[ 3]            0.00000 [K]
	Block[ 4]            0.00000 [K]
	------------------------------------------------------------------------------
	Average              0.00000 [K] +/-            0.00000 [K]

Adsorbate back-polarization energy:
=======================
	Block[ 0]            0.00000 [K]
	Block[ 1]            0.00000 [K]
	Block[ 2]            0.00000 [K]
	Block[ 3]            0.00000 [K]
	Block[ 4]            0.00000 [K]
	------------------------------------------------------------------------------
	Average              0.00000 [K] +/-            0.00000 [K]

Cation back-polarization energy:
=======================
	Block[ 0]            0.00000 [K]
	Block[ 1]            0.00000 [K]
	Block[ 2]            0.00000 [K]
	Block[ 3]            0.00000 [K]
	Block[ 4]            0.00000 [K]
	------------------------------------------------------------------------------
	Average              0.00000 [K] +/-            0.00000 [K]

Tail-correction energy:
=======================
	Block[ 0]            0.00000 [K]
	Block[ 1]            0.00000 [K]
	Block[ 2]            0.00000 [K]
	Block[ 3]            0.00000 [K]
	Block[ 4]            0.00000 [K]
	------------------------------------------------------------------------------
	Average              0.00000 [K] +/-            0.00000 [K]

Distance-constraints energy:
=======================
	Block[ 0]            0.00000 [K]
	Block[ 1]            0.00000 [K]
	Block[ 2]            0.00000 [K]
	Block[ 3]            0.00000 [K]
	Block[ 4]            0.00000 [K]
	------------------------------------------------------------------------------
	Average              0.00000 [K] +/-            0.00000 [K]

Angle-constraints energy:
=======================
	Block[ 0]            0.00000 [K]
	Block[ 1]            0.00000 [K]
	Block[ 2]            0.00000 [K]
	Block[ 3]            0.00000 [K]
	Block[ 4]            0.00000 [K]
	------------------------------------------------------------------------------
	Average              0.00000 [K] +/-            0.00000 [K]

Dihedral-constraints energy:
=======================
	Block[ 0]            0.00000 [K]
	Block[ 1]            0.00000 [K]
	Block[ 2]            0.00000 [K]
	Block[ 3]            0.00000 [K]
	Block[ 4]            0.00000 [K]
	------------------------------------------------------------------------------
	Average              0.00000 [K] +/-            0.00000 [K]

Inversion-bend constraints energy:
=======================
	Block[ 0]            0.00000 [K]
	Block[ 1]            0.00000 [K]
	Block[ 2]            0.00000 [K]
	Block[ 3]            0.00000 [K]
	Block[ 4]            0.00000 [K]
	------------------------------------------------------------------------------
	Average              0.00000 [K] +/-            0.00000 [K]

Out-of-plane-distance constraints energy:
=======================
	Block[ 0]            0.00000 [K]
	Block[ 1]            0.00000 [K]
	Block[ 2]            0.00000 [K]
	Block[ 3]            0.00000 [K]
	Block[ 4]            0.00000 [K]
	------------------------------------------------------------------------------
	Average              0.00000 [K] +/-            0.00000 [K]

Exclusion-constraints energy:
=======================
	Block[ 0]            0.00000 [K]
	Block[ 1]            0.00000 [K]
	Block[ 2]            0.00000 [K]
	Block[ 3]            0.00000 [K]
	Block[ 4]            0.00000 [K]
	------------------------------------------------------------------------------
	Average              0.00000 [K] +/-            0.00000 [K]

Total energy:
=============
	Block[ 0]     -1882494.18872 [K]
	Block[ 1]     -1889942.50137 [K]
	Block[ 2]     -1890411.65012 [K]
	Block[ 3]     -1891204.35137 [K]
	Block[ 4]     -1891115.91549 [K]
	------------------------------------------------------------------------------
	Average       -1889033.72141 [K] +/-         6605.28412 [K]

Number of molecules:
====================

Component 0 [argon]
-------------------------------------------------------------
	Block[ 0] 769.43200          [-]
	Block[ 1] 773.61780          [-]
	Block[ 2] 773.66360          [-]
	Block[ 3] 774.00100          [-]
	Block[ 4] 774.00000          [-]
	------------------------------------------------------------------------------
	Average                                    772.9428800000 +/-       3.5257173260 [-]
	Average loading absolute [molecules/unit cell]       85.8825422222 +/-       0.3917463696 [-]
	Average loading absolute [mol/kg framework]         13.2348837264 +/-       0.0603698670 [-]
	Average loading absolute [milligram/gram framework]        528.7071351007 +/-       2.4116554468 [-]
	Average loading absolute [cm^3 (STP)/gr framework]        296.6463628649 +/-       1.3531287347 [-]
	Average loading absolute [cm^3 (STP)/cm^3 framework]        446.5822815407 +/-       2.0370494745 [-]

	Block[ 0] 769.43200          [-]
	Block[ 1] 773.61780          [-]
	Block[ 2] 773.66360          [-]
	Block[ 3] 774.00100          [-]
	Block[ 4] 774.00000          [-]
	------------------------------------------------------------------------------
	Average                                    772.9428800000 +/-       3.5257173260 [-]
	Average loading excess [molecules/unit cell]       85.8825422222 +/-       0.3917463696 [-]
	Average loading excess [mol/kg framework]         13.2348837264 +/-       0.0603698670 [-]
	Average loading excess [milligram/gram framework]        528.7071351007 +/-       2.4116554468 [-]
	Average loading excess [cm^3 (STP)/gr framework]        296.6463628649 +/-       1.3531287347 [-]
	Average loading excess [cm^3 (STP)/cm^3 framework]        446.5822815407 +/-       2.0370494745 [-]


Average Widom Rosenbluth factor:
================================
	Block[ 0] 0 [-]
	Block[ 1] 0 [-]
	Block[ 2] 0 [-]
	Block[ 3] 0 [-]
	Block[ 4] 0 [-]
	------------------------------------------------------------------------------
	[argon] Average Widom Rosenbluth-weight:   0 +/- 0.000000 [-]

Average Widom chemical potential:
=================================
	Block[ 0] 0 [-]
	Block[ 1] 0 [-]
	Block[ 2] 0 [-]
	Block[ 3] 0 [-]
	Block[ 4] 0 [-]
	------------------------------------------------------------------------------
	[argon] Average chemical potential:   0 +/- 0.000000 [K]

Average Widom Ideal-gas contribution:
=====================================
	Block[ 0] 0 [-]
	Block[ 1] 0 [-]
	Block[ 2] 0 [-]
	Block[ 3] 0 [-]
	Block[ 4] 0 [-]
	------------------------------------------------------------------------------
	[argon] Average Widom Ideal-gas chemical potential:   0 +/- 0.000000 [-]

Average Widom excess contribution:
==================================
	Block[ 0] 0 [-]
	Block[ 1] 0 [-]
	Block[ 2] 0 [-]
	Block[ 3] 0 [-]
	Block[ 4] 0 [-]
	------------------------------------------------------------------------------
	[argon] Average Widom excess chemical potential:   0 +/- 0.000000 [-]

Average Gibbs Widom Rosenbluth factor:
======================================
	Block[ 0] 0 [-]
	Block[ 1] 0 [-]
	Block[ 2] 0 [-]
	Block[ 3] 0 [-]
	Block[ 4] 0 [-]
	------------------------------------------------------------------------------
	[argon] Average Gibbs Widom Rosenbluth-weight:   0 +/- 0.000000 [-]

Average Gibbs Widom chemical potential:
=======================================
	Block[ 0] 0 [-]
	Block[ 1] 0 [-]
	Block[ 2] 0 [-]
	Block[ 3] 0 [-]
	Block[ 4] 0 [-]
	------------------------------------------------------------------------------
	[argon] Average Gibbs chemical potential:   0 +/- 0.000000 [K]

Average Gibbs Widom Ideal-gas contribution:
===========================================
	Block[ 0] 0 [-]
	Block[ 1] 0 [-]
	Block[ 2] 0 [-]
	Block[ 3] 0 [-]
	Block[ 4] 0 [-]
	------------------------------------------------------------------------------
	[argon] Average Gibbs Ideal-gas chemical potential:   0 +/- 0.000000 [-]

Average Gibbs Widom excess contribution:
===========================================
	Block[ 0] 0 [-]
	Block[ 1] 0 [-]
	Block[ 2] 0 [-]
	Block[ 3] 0 [-]
	Block[ 4] 0 [-]
	------------------------------------------------------------------------------
	[argon] Average Gibbs excess chemical potential:   0 +/- 0.000000 [-]

Average Henry coefficient:
==========================
	Block[ 0] 0 [mol/kg/Pa]
	Block[ 1] 0 [mol/kg/Pa]
	Block[ 2] 0 [mol/kg/Pa]
	Block[ 3] 0 [mol/kg/Pa]
	Block[ 4] 0 [mol/kg/Pa]
	------------------------------------------------------------------------------
	[argon] Average Henry coefficient:  0 +/- 0 [mol/kg/Pa]

Average adsorption energy <U_gh>_1-<U_h>_0 obtained from Widom-insertion:
(Note: the total heat of adsorption is dH=<U_gh>_1-<U_h>_0 - <U_g> - RT)
=========================================================================

Simulation finished,  0 warnings


Fri Jun 11 09:59:15 2021
Simulation finished on Friday, June 11.
The end time was 09:59 AM.

