# vtk DataFile Version 1.0
Cube
ASCII

DATASET POLYDATA
POINTS 696 float
4.372128 19.005320 12.920000
5.816584 20.023416 10.971664
5.558184 17.416160 11.188720
3.511656 18.891624 10.439360
8.152520 17.687480 14.969112
7.018144 15.341208 15.341208
7.214528 16.336048 12.920000
2.615008 17.077656 17.077656
1.315256 19.346408 16.772744
1.315256 17.563448 14.842496
0.000000 15.341208 10.498792
25.840000 15.341208 10.498792
0.000000 16.343800 12.920000
25.840000 16.343800 12.920000
0.000000 19.025992 19.025992
25.840000 19.025992 19.025992
0.000000 17.824432 21.364512
25.840000 17.824432 21.364512
4.813992 18.832192 11.382520
6.984552 16.695224 14.472984
2.188648 18.219784 16.025968
0.000000 16.705560 11.351512
25.840000 16.705560 11.351512
0.000000 17.599624 19.770184
25.840000 17.599624 19.770184
6.834680 4.372128 12.920000
5.816584 5.816584 10.971664
8.423840 5.558184 11.188720
6.948376 3.511656 10.439360
8.152520 8.152520 14.969112
10.498792 7.018144 15.341208
9.503952 7.214528 12.920000
8.762344 2.615008 17.077656
6.493592 1.315256 16.772744
8.276552 1.315256 14.842496
10.498792 0.000000 10.498792
10.498792 25.840000 10.498792
9.496200 0.000000 12.920000
9.496200 25.840000 12.920000
6.814008 0.000000 19.025992
6.814008 25.840000 19.025992
8.015568 0.000000 21.364512
8.015568 25.840000 21.364512
7.007808 4.813992 11.382520
9.144776 6.984552 14.472984
7.620216 2.188648 16.025968
9.134440 0.000000 11.351512
9.134440 25.840000 11.351512
8.240376 0.000000 19.770184
8.240376 25.840000 19.770184
21.467872 6.834680 12.920000
20.023416 5.816584 10.971664
20.281816 8.423840 11.188720
22.328344 6.948376 10.439360
17.687480 8.152520 14.969112
18.821856 10.498792 15.341208
18.625472 9.503952 12.920000
23.224992 8.762344 17.077656
24.524744 6.493592 16.772744
24.524744 8.276552 14.842496
0.000000 10.498792 10.498792
25.840000 10.498792 10.498792
0.000000 9.496200 12.920000
25.840000 9.496200 12.920000
0.000000 6.814008 19.025992
25.840000 6.814008 19.025992
0.000000 8.015568 21.364512
25.840000 8.015568 21.364512
21.026008 7.007808 11.382520
18.855448 9.144776 14.472984
23.651352 7.620216 16.025968
0.000000 9.134440 11.351512
25.840000 9.134440 11.351512
0.000000 8.240376 19.770184
25.840000 8.240376 19.770184
19.005320 21.467872 12.920000
20.023416 20.023416 10.971664
17.416160 20.281816 11.188720
18.891624 22.328344 10.439360
17.687480 17.687480 14.969112
15.341208 18.821856 15.341208
16.336048 18.625472 12.920000
17.077656 23.224992 17.077656
19.346408 24.524744 16.772744
17.563448 24.524744 14.842496
15.341208 0.000000 10.498792
15.341208 25.840000 10.498792
16.343800 0.000000 12.920000
16.343800 25.840000 12.920000
19.025992 0.000000 19.025992
19.025992 25.840000 19.025992
17.824432 0.000000 21.364512
17.824432 25.840000 21.364512
18.832192 21.026008 11.382520
16.695224 18.855448 14.472984
18.219784 23.651352 16.025968
16.705560 0.000000 11.351512
16.705560 25.840000 11.351512
17.599624 0.000000 19.770184
17.599624 25.840000 19.770184
4.372128 6.834680 12.920000
5.816584 5.816584 14.868336
5.558184 8.423840 14.651280
3.511656 6.948376 15.400640
8.152520 8.152520 10.870888
7.018144 10.498792 10.498792
7.214528 9.503952 12.920000
2.615008 8.762344 8.762344
1.315256 6.493592 9.067256
1.315256 8.276552 10.997504
0.000000 10.498792 15.341208
25.840000 10.498792 15.341208
0.000000 6.814008 6.814008
25.840000 6.814008 6.814008
0.000000 8.015568 4.475488
25.840000 8.015568 4.475488
4.813992 7.007808 14.457480
6.984552 9.144776 11.367016
2.188648 7.620216 9.814032
0.000000 9.134440 14.488488
25.840000 9.134440 14.488488
0.000000 8.240376 6.069816
25.840000 8.240376 6.069816
19.005320 4.372128 12.920000
20.023416 5.816584 14.868336
17.416160 5.558184 14.651280
18.891624 3.511656 15.400640
17.687480 8.152520 10.870888
15.341208 7.018144 10.498792
16.336048 7.214528 12.920000
17.077656 2.615008 8.762344
19.346408 1.315256 9.067256
17.563448 1.315256 10.997504
15.341208 0.000000 15.341208
15.341208 25.840000 15.341208
19.025992 0.000000 6.814008
19.025992 25.840000 6.814008
17.824432 0.000000 4.475488
17.824432 25.840000 4.475488
18.832192 4.813992 14.457480
16.695224 6.984552 11.367016
18.219784 2.188648 9.814032
16.705560 0.000000 14.488488
16.705560 25.840000 14.488488
17.599624 0.000000 6.069816
17.599624 25.840000 6.069816
21.467872 19.005320 12.920000
20.023416 20.023416 14.868336
20.281816 17.416160 14.651280
22.328344 18.891624 15.400640
17.687480 17.687480 10.870888
18.821856 15.341208 10.498792
18.625472 16.336048 12.920000
23.224992 17.077656 8.762344
24.524744 19.346408 9.067256
24.524744 17.563448 10.997504
0.000000 15.341208 15.341208
25.840000 15.341208 15.341208
0.000000 19.025992 6.814008
25.840000 19.025992 6.814008
0.000000 17.824432 4.475488
25.840000 17.824432 4.475488
21.026008 18.832192 14.457480
18.855448 16.695224 11.367016
23.651352 18.219784 9.814032
0.000000 16.705560 14.488488
25.840000 16.705560 14.488488
0.000000 17.599624 6.069816
25.840000 17.599624 6.069816
6.834680 21.467872 12.920000
5.816584 20.023416 14.868336
8.423840 20.281816 14.651280
6.948376 22.328344 15.400640
8.152520 17.687480 10.870888
10.498792 18.821856 10.498792
9.503952 18.625472 12.920000
8.762344 23.224992 8.762344
6.493592 24.524744 9.067256
8.276552 24.524744 10.997504
10.498792 0.000000 15.341208
10.498792 25.840000 15.341208
6.814008 0.000000 6.814008
6.814008 25.840000 6.814008
8.015568 0.000000 4.475488
8.015568 25.840000 4.475488
7.007808 21.026008 14.457480
9.144776 18.855448 11.367016
7.620216 23.651352 9.814032
9.134440 0.000000 14.488488
9.134440 25.840000 14.488488
8.240376 0.000000 6.069816
8.240376 25.840000 6.069816
12.920000 4.372128 19.005320
10.971664 5.816584 20.023416
11.188720 5.558184 17.416160
10.439360 3.511656 18.891624
14.969112 8.152520 17.687480
15.341208 7.018144 15.341208
12.920000 7.214528 16.336048
17.077656 2.615008 17.077656
16.772744 1.315256 19.346408
14.842496 1.315256 17.563448
12.920000 0.000000 16.343800
12.920000 25.840000 16.343800
21.364512 0.000000 17.824432
21.364512 25.840000 17.824432
11.382520 4.813992 18.832192
14.472984 6.984552 16.695224
16.025968 2.188648 18.219784
11.351512 0.000000 16.705560
11.351512 25.840000 16.705560
19.770184 0.000000 17.599624
19.770184 25.840000 17.599624
21.467872 12.920000 19.005320
20.023416 10.971664 20.023416
20.281816 11.188720 17.416160
22.328344 10.439360 18.891624
17.687480 14.969112 17.687480
18.821856 15.341208 15.341208
18.625472 12.920000 16.336048
23.224992 17.077656 17.077656
24.524744 16.772744 19.346408
24.524744 14.842496 17.563448
0.000000 12.920000 16.343800
25.840000 12.920000 16.343800
0.000000 21.364512 17.824432
25.840000 21.364512 17.824432
21.026008 11.382520 18.832192
18.855448 14.472984 16.695224
23.651352 16.025968 18.219784
0.000000 11.351512 16.705560
25.840000 11.351512 16.705560
0.000000 19.770184 17.599624
25.840000 19.770184 17.599624
12.920000 21.467872 19.005320
14.868336 20.023416 20.023416
14.651280 20.281816 17.416160
15.400640 22.328344 18.891624
10.870888 17.687480 17.687480
10.498792 18.821856 15.341208
12.920000 18.625472 16.336048
8.762344 23.224992 17.077656
9.067256 24.524744 19.346408
10.997504 24.524744 17.563448
4.475488 0.000000 17.824432
4.475488 25.840000 17.824432
14.457480 21.026008 18.832192
11.367016 18.855448 16.695224
9.814032 23.651352 18.219784
14.488488 0.000000 16.705560
14.488488 25.840000 16.705560
6.069816 0.000000 17.599624
6.069816 25.840000 17.599624
4.372128 12.920000 19.005320
5.816584 14.868336 20.023416
5.558184 14.651280 17.416160
3.511656 15.400640 18.891624
8.152520 10.870888 17.687480
7.018144 10.498792 15.341208
7.214528 12.920000 16.336048
2.615008 8.762344 17.077656
1.315256 9.067256 19.346408
1.315256 10.997504 17.563448
0.000000 4.475488 17.824432
25.840000 4.475488 17.824432
4.813992 14.457480 18.832192
6.984552 11.367016 16.695224
2.188648 9.814032 18.219784
0.000000 14.488488 16.705560
25.840000 14.488488 16.705560
0.000000 6.069816 17.599624
25.840000 6.069816 17.599624
12.920000 21.467872 6.834680
10.971664 20.023416 5.816584
11.188720 20.281816 8.423840
10.439360 22.328344 6.948376
14.969112 17.687480 8.152520
15.341208 18.821856 10.498792
12.920000 18.625472 9.503952
17.077656 23.224992 8.762344
16.772744 24.524744 6.493592
14.842496 24.524744 8.276552
12.920000 0.000000 9.496200
12.920000 25.840000 9.496200
21.364512 0.000000 8.015568
21.364512 25.840000 8.015568
11.382520 21.026008 7.007808
14.472984 18.855448 9.144776
16.025968 23.651352 7.620216
11.351512 0.000000 9.134440
11.351512 25.840000 9.134440
19.770184 0.000000 8.240376
19.770184 25.840000 8.240376
4.372128 12.920000 6.834680
5.816584 10.971664 5.816584
5.558184 11.188720 8.423840
3.511656 10.439360 6.948376
8.152520 14.969112 8.152520
7.018144 15.341208 10.498792
7.214528 12.920000 9.503952
2.615008 17.077656 8.762344
1.315256 16.772744 6.493592
1.315256 14.842496 8.276552
0.000000 12.920000 9.496200
25.840000 12.920000 9.496200
0.000000 21.364512 8.015568
25.840000 21.364512 8.015568
4.813992 11.382520 7.007808
6.984552 14.472984 9.144776
2.188648 16.025968 7.620216
0.000000 11.351512 9.134440
25.840000 11.351512 9.134440
0.000000 19.770184 8.240376
25.840000 19.770184 8.240376
12.920000 4.372128 6.834680
14.868336 5.816584 5.816584
14.651280 5.558184 8.423840
15.400640 3.511656 6.948376
10.870888 8.152520 8.152520
10.498792 7.018144 10.498792
12.920000 7.214528 9.503952
8.762344 2.615008 8.762344
9.067256 1.315256 6.493592
10.997504 1.315256 8.276552
4.475488 0.000000 8.015568
4.475488 25.840000 8.015568
14.457480 4.813992 7.007808
11.367016 6.984552 9.144776
9.814032 2.188648 7.620216
14.488488 0.000000 9.134440
14.488488 25.840000 9.134440
6.069816 0.000000 8.240376
6.069816 25.840000 8.240376
21.467872 12.920000 6.834680
20.023416 14.868336 5.816584
20.281816 14.651280 8.423840
22.328344 15.400640 6.948376
17.687480 10.870888 8.152520
18.821856 10.498792 10.498792
18.625472 12.920000 9.503952
23.224992 8.762344 8.762344
24.524744 9.067256 6.493592
24.524744 10.997504 8.276552
[...]
POINT_DATA 696
SCALARS my_scalars float
LOOKUP_TABLE default
1.52
1.52
1.52
1.52
1.52
1.52
1.52
1.52
1.52
1.52
1.52
1.52
1.52
1.52
1.52
1.52
1.52
1.52
2.1
2.1
2.1
2.1
2.1
2.1
2.1
1.52
1.52
1.52
1.52
1.52
1.52
1.52
1.52
1.52
1.52
1.52
1.52
1.52
1.52
1.52
1.52
1.52
1.52
2.1
2.1
2.1
2.1
2.1
2.1
2.1
1.52
1.52
1.52
1.52
1.52
1.52
1.52
1.52
1.52
1.52
1.52
1.52
1.52
1.52
1.52
1.52
1.52
1.52
2.1
2.1
2.1
2.1
2.1
2.1
2.1
1.52
1.52
1.52
1.52
1.52
1.52
1.52
1.52
1.52
1.52
1.52
1.52
1.52
1.52
1.52
1.52
1.52
1.52
2.1
2.1
2.1
2.1
2.1
2.1
2.1
1.52
1.52
1.52
1.52
1.52
1.52
1.52
1.52
1.52
1.52
1.52
1.52
1.52
1.52
1.52
1.52
2.1
2.1
2.1
2.1
2.1
2.1
2.1
1.52
1.52
1.52
1.52
1.52
1.52
1.52
1.52
1.52
1.52
1.52
1.52
1.52
1.52
1.52
1.52
2.1
2.1
2.1
2.1
2.1
2.1
2.1
1.52
1.52
1.52
1.52
1.52
1.52
1.52
1.52
1.52
1.52
1.52
1.52
1.52
1.52
1.52
1.52
2.1
2.1
2.1
2.1
2.1
2.1
2.1
1.52
1.52
1.52
1.52
1.52
1.52
1.52
1.52
1.52
1.52
1.52
1.52
1.52
1.52
1.52
1.52
2.1
2.1
2.1
2.1
2.1
2.1
2.1
1.52
1.52
1.52
1.52
1.52
1.52
1.52
1.52
1.52
1.52
1.52
1.52
1.52
1.52
2.1
2.1
2.1
2.1
2.1
2.1
2.1
1.52
1.52
1.52
1.52
1.52
1.52
1.52
1.52
1.52
1.52
1.52
1.52
1.52
1.52
2.1
2.1
2.1
2.1
2.1
2.1
2.1
1.52
1.52
1.52
1.52
1.52
1.52
1.52
1.52
1.52
1.52
1.52
1.52
2.1
2.1
2.1
2.1
2.1
2.1
2.1
1.52
1.52
1.52
1.52
1.52
1.52
1.52
1.52
1.52
1.52
1.52
1.52
2.1
2.1
2.1
2.1
2.1
2.1
2.1
1.52
1.52
1.52
1.52
1.52
1.52
1.52
1.52
1.52
1.52
1.52
1.52
1.52
1.52
2.1
2.1
2.1
2.1
2.1
2.1
2.1
1.52
1.52
1.52
1.52
1.52
1.52
1.52
1.52
1.52
1.52
1.52
1.52
1.52
1.52
2.1
2.1
2.1
2.1
2.1
2.1
2.1
1.52
1.52
1.52
1.52
1.52
1.52
1.52
1.52
1.52
1.52
1.52
1.52
2.1
2.1
2.1
2.1
2.1
2.1
2.1
1.52
1.52
1.52
1.52
1.52
1.52
1.52
1.52
1.52
1.52
1.52
1.52
2.1
2.1
2.1
2.1
2.1
2.1
2.1
1.52
1.52
1.52
1.52
1.52
1.52
1.52
1.52
1.52
1.52
1.52
1.52
1.52
1.52
1.52
1.52
1.52
1.52
2.1
2.1
2.1
2.1
2.1
2.1
2.1
1.52
1.52
1.52
1.52
1.52
1.52
1.52
1.52
1.52
1.52
1.52
1.52
1.52
1.52
1.52
1.52
2.1
2.1
2.1
2.1
2.1
2.1
2.1
1.52
1.52
1.52
1.52
1.52
1.52
1.52
1.52
1.52
1.52
1.52
1.52
1.52
1.52
1.52
1.52
2.1
2.1
2.1
2.1
2.1
2.1
2.1
1.52
1.52
1.52
1.52
1.52
1.52
1.52
1.52
1.52
1.52
1.52
1.52
1.52
1.52
1.52
1.52
1.52
1.52
2.1
2.1
2.1
2.1
2.1
2.1
2.1
1.52
1.52
1.52
1.52
1.52
1.52
1.52
1.52
1.52
1.52
1.52
1.52
1.52
1.52
1.52
1.52
2.1
2.1
2.1
2.1
2.1
2.1
2.1
1.52
1.52
1.52
1.52
1.52
1.52
1.52
1.52
1.52
1.52
1.52
1.52
2.1
2.1
2.1
2.1
2.1
2.1
2.1
1.52
1.52
1.52
1.52
1.52
1.52
1.52
1.52
1.52
1.52
1.52
1.52
2.1
2.1
2.1
2.1
2.1
2.1
2.1
1.52
1.52
1.52
1.52
1.52
1.52
1.52
1.52
1.52
1.52
1.52
1.52
2.1
2.1
2.1
2.1
2.1
2.1
2.1
1.52
1.52
1.52
1.52
2.1
2.1
2.1
1.52
1.52
1.52
1.52
2.1
2.1
2.1
1.52
1.52
1.52
1.52
2.1
2.1
2.1
1.52
1.52
1.52
1.52
2.1
2.1
2.1
1.52
1.52
1.52
1.52
2.1
2.1
2.1
1.52
1.52
1.52
1.52
2.1
2.1
2.1
1.52
1.52
1.52
1.52
2.1
2.1
2.1
1.52
1.52
1.52
1.52
2.1
2.1
2.1
1.52
1.52
1.52
1.52
2.1
2.1
2.1
1.52
1.52
1.52
1.52
2.1
2.1
2.1
1.52
1.52
1.52
1.52
2.1
2.1
2.1
1.52
1.52
1.52
1.52
2.1
2.1
2.1
1.52
1.52
1.52
1.52
2.1
2.1
2.1
1.52
1.52
1.52
1.52
2.1
2.1
2.1
1.52
1.52
1.52
1.52
2.1
2.1
2.1
1.52
1.52
1.52
1.52
2.1
2.1
2.1
1.52
1.52
1.52
1.52
2.1
2.1
2.1
1.52
1.52
1.52
1.52
2.1
2.1
2.1
1.52
1.52
1.52
1.52
2.1
2.1
2.1
1.52
1.52
1.52
1.52
2.1
2.1
2.1
1.52
1.52
1.52
1.52
2.1
2.1
2.1
1.52
1.52
1.52
1.52
2.1
2.1
2.1
1.52
1.52
1.52
1.52
2.1
2.1
2.1
1.52
1.52
1.52
1.52
2.1
2.1
2.1
VECTORS vectors float
0.03125 0 0
0.03125 0 0
0.03125 0 0
0.03125 0 0
0.03125 0 0
0.03125 0 0
0.03125 0 0
0.03125 0 0
0.03125 0 0
0.03125 0 0
0.03125 0 0
0.03125 0 0
0.03125 0 0
0.03125 0 0
0.03125 0 0
0.03125 0 0
0.03125 0 0
0.03125 0 0
0.125 0 0
0.125 0 0
0.125 0 0
0.125 0 0
0.125 0 0
0.125 0 0
0.125 0 0
0.03125 0 0
0.03125 0 0
0.03125 0 0
0.03125 0 0
0.03125 0 0
0.03125 0 0
0.03125 0 0
0.03125 0 0
0.03125 0 0
0.03125 0 0
0.03125 0 0
0.03125 0 0
0.03125 0 0
0.03125 0 0
0.03125 0 0
0.03125 0 0
0.03125 0 0
0.03125 0 0
0.125 0 0
0.125 0 0
0.125 0 0
0.125 0 0
0.125 0 0
0.125 0 0
0.125 0 0
0.03125 0 0
0.03125 0 0
0.03125 0 0
0.03125 0 0
0.03125 0 0
0.03125 0 0
0.03125 0 0
0.03125 0 0
0.03125 0 0
0.03125 0 0
0.03125 0 0
0.03125 0 0
0.03125 0 0
0.03125 0 0
0.03125 0 0
0.03125 0 0
0.03125 0 0
0.03125 0 0
0.125 0 0
0.125 0 0
0.125 0 0
0.125 0 0
0.125 0 0
0.125 0 0
0.125 0 0
0.03125 0 0
0.03125 0 0
0.03125 0 0
0.03125 0 0
0.03125 0 0
0.03125 0 0
0.03125 0 0
0.03125 0 0
0.03125 0 0
0.03125 0 0
0.03125 0 0
0.03125 0 0
0.03125 0 0
0.03125 0 0
0.03125 0 0
0.03125 0 0
0.03125 0 0
0.03125 0 0
0.125 0 0
0.125 0 0
0.125 0 0
0.125 0 0
0.125 0 0
0.125 0 0
0.125 0 0
0.03125 0 0
0.03125 0 0
0.03125 0 0
0.03125 0 0
0.03125 0 0
0.03125 0 0
0.03125 0 0
0.03125 0 0
0.03125 0 0
0.03125 0 0
0.03125 0 0
0.03125 0 0
0.03125 0 0
0.03125 0 0
0.03125 0 0
0.03125 0 0
0.125 0 0
0.125 0 0
0.125 0 0
0.125 0 0
0.125 0 0
0.125 0 0
0.125 0 0
0.03125 0 0
0.03125 0 0
0.03125 0 0
0.03125 0 0
0.03125 0 0
0.03125 0 0
0.03125 0 0
0.03125 0 0
0.03125 0 0
0.03125 0 0
0.03125 0 0
0.03125 0 0
0.03125 0 0
0.03125 0 0
0.03125 0 0
0.03125 0 0
0.125 0 0
0.125 0 0
0.125 0 0
0.125 0 0
0.125 0 0
0.125 0 0
0.125 0 0
0.03125 0 0
0.03125 0 0
0.03125 0 0
0.03125 0 0
0.03125 0 0
0.03125 0 0
0.03125 0 0
0.03125 0 0
0.03125 0 0
0.03125 0 0
0.03125 0 0
0.03125 0 0
0.03125 0 0
0.03125 0 0
0.03125 0 0
0.03125 0 0
0.125 0 0
0.125 0 0
0.125 0 0
0.125 0 0
0.125 0 0
0.125 0 0
0.125 0 0
0.03125 0 0
0.03125 0 0
0.03125 0 0
0.03125 0 0
0.03125 0 0
0.03125 0 0
0.03125 0 0
0.03125 0 0
0.03125 0 0
0.03125 0 0
0.03125 0 0
0.03125 0 0
0.03125 0 0
0.03125 0 0
0.03125 0 0
0.03125 0 0
0.125 0 0
0.125 0 0
0.125 0 0
0.125 0 0
0.125 0 0
0.125 0 0
0.125 0 0
0.03125 0 0
0.03125 0 0
0.03125 0 0
0.03125 0 0
0.03125 0 0
0.03125 0 0
0.03125 0 0
0.03125 0 0
0.03125 0 0
0.03125 0 0
0.03125 0 0
0.03125 0 0
0.03125 0 0
0.03125 0 0
0.125 0 0
0.125 0 0
0.125 0 0
0.125 0 0
0.125 0 0
0.125 0 0
0.125 0 0
0.03125 0 0
0.03125 0 0
0.03125 0 0
0.03125 0 0
0.03125 0 0
0.03125 0 0
0.03125 0 0
0.03125 0 0
0.03125 0 0
0.03125 0 0
0.03125 0 0
0.03125 0 0
0.03125 0 0
0.03125 0 0
0.125 0 0
0.125 0 0
0.125 0 0
0.125 0 0
0.125 0 0
0.125 0 0
0.125 0 0
0.03125 0 0
0.03125 0 0
0.03125 0 0
0.03125 0 0
0.03125 0 0
0.03125 0 0
0.03125 0 0
0.03125 0 0
0.03125 0 0
0.03125 0 0
0.03125 0 0
0.03125 0 0
0.125 0 0
0.125 0 0
0.125 0 0
0.125 0 0
0.125 0 0
0.125 0 0
0.125 0 0
0.03125 0 0
0.03125 0 0
0.03125 0 0
0.03125 0 0
0.03125 0 0
0.03125 0 0
0.03125 0 0
0.03125 0 0
0.03125 0 0
0.03125 0 0
0.03125 0 0
0.03125 0 0
0.125 0 0
0.125 0 0
0.125 0 0
0.125 0 0
0.125 0 0
0.125 0 0
0.125 0 0
0.03125 0 0
0.03125 0 0
0.03125 0 0
0.03125 0 0
0.03125 0 0
0.03125 0 0
0.03125 0 0
0.03125 0 0
0.03125 0 0
0.03125 0 0
0.03125 0 0
0.03125 0 0
0.03125 0 0
0.03125 0 0
0.125 0 0
0.125 0 0
0.125 0 0
0.125 0 0
0.125 0 0
0.125 0 0
0.125 0 0
0.03125 0 0
0.03125 0 0
0.03125 0 0
0.03125 0 0
0.03125 0 0
0.03125 0 0
0.03125 0 0
0.03125 0 0
0.03125 0 0
0.03125 0 0
0.03125 0 0
0.03125 0 0
0.03125 0 0
0.03125 0 0
0.125 0 0
0.125 0 0
0.125 0 0
0.125 0 0
0.125 0 0
0.125 0 0
0.125 0 0
0.03125 0 0
0.03125 0 0
0.03125 0 0
0.03125 0 0
0.03125 0 0
0.03125 0 0
0.03125 0 0
0.03125 0 0
0.03125 0 0
0.03125 0 0
0.03125 0 0
0.03125 0 0
0.125 0 0
0.125 0 0
0.125 0 0
0.125 0 0
0.125 0 0
0.125 0 0
0.125 0 0
0.03125 0 0
0.03125 0 0
0.03125 0 0
0.03125 0 0
0.03125 0 0
0.03125 0 0
0.03125 0 0
0.03125 0 0
0.03125 0 0
0.03125 0 0
0.03125 0 0
0.03125 0 0
0.125 0 0
0.125 0 0
0.125 0 0
0.125 0 0
0.125 0 0
0.125 0 0
0.125 0 0
0.03125 0 0
0.03125 0 0
0.03125 0 0
0.03125 0 0
0.03125 0 0
0.03125 0 0
0.03125 0 0
0.03125 0 0
0.03125 0 0
0.03125 0 0
0.03125 0 0
0.03125 0 0
0.03125 0 0
0.03125 0 0
0.03125 0 0
0.03125 0 0
0.03125 0 0
0.03125 0 0
0.125 0 0
0.125 0 0
0.125 0 0
0.125 0 0
0.125 0 0
0.125 0 0
0.125 0 0
0.03125 0 0
0.03125 0 0
0.03125 0 0
0.03125 0 0
0.03125 0 0
0.03125 0 0
0.03125 0 0
0.03125 0 0
0.03125 0 0
0.03125 0 0
0.03125 0 0
0.03125 0 0
0.03125 0 0
0.03125 0 0
0.03125 0 0
0.03125 0 0
0.125 0 0
0.125 0 0
0.125 0 0
0.125 0 0
0.125 0 0
0.125 0 0
0.125 0 0
0.03125 0 0
0.03125 0 0
0.03125 0 0
0.03125 0 0
0.03125 0 0
0.03125 0 0
0.03125 0 0
0.03125 0 0
0.03125 0 0
0.03125 0 0
0.03125 0 0
0.03125 0 0
0.03125 0 0
0.03125 0 0
0.03125 0 0
0.03125 0 0
0.125 0 0
0.125 0 0
0.125 0 0
0.125 0 0
0.125 0 0
0.125 0 0
0.125 0 0
0.03125 0 0
0.03125 0 0
0.03125 0 0
0.03125 0 0
0.03125 0 0
0.03125 0 0
0.03125 0 0
0.03125 0 0
0.03125 0 0
0.03125 0 0
0.03125 0 0
0.03125 0 0
0.03125 0 0
0.03125 0 0
0.03125 0 0
0.03125 0 0
0.03125 0 0
0.03125 0 0
0.125 0 0
0.125 0 0
0.125 0 0
0.125 0 0
0.125 0 0
0.125 0 0
0.125 0 0
0.03125 0 0
0.03125 0 0
0.03125 0 0
0.03125 0 0
0.03125 0 0
0.03125 0 0
0.03125 0 0
0.03125 0 0
0.03125 0 0
0.03125 0 0
0.03125 0 0
0.03125 0 0
0.03125 0 0
0.03125 0 0
0.03125 0 0
0.03125 0 0
0.125 0 0
0.125 0 0
0.125 0 0
0.125 0 0
0.125 0 0
0.125 0 0
0.125 0 0
0.03125 0 0
0.03125 0 0
0.03125 0 0
0.03125 0 0
0.03125 0 0
0.03125 0 0
0.03125 0 0
0.03125 0 0
0.03125 0 0
0.03125 0 0
0.03125 0 0
0.03125 0 0
0.125 0 0
0.125 0 0
0.125 0 0
0.125 0 0
0.125 0 0
0.125 0 0
0.125 0 0
0.03125 0 0
0.03125 0 0
0.03125 0 0
0.03125 0 0
0.03125 0 0
0.03125 0 0
0.03125 0 0
0.03125 0 0
0.03125 0 0
0.03125 0 0
0.03125 0 0
0.03125 0 0
0.125 0 0
0.125 0 0
0.125 0 0
0.125 0 0
0.125 0 0
0.125 0 0
0.125 0 0
0.03125 0 0
0.03125 0 0
0.03125 0 0
0.03125 0 0
0.03125 0 0
0.03125 0 0
0.03125 0 0
0.03125 0 0
0.03125 0 0
0.03125 0 0
0.03125 0 0
0.03125 0 0
0.125 0 0
0.125 0 0
0.125 0 0
0.125 0 0
0.125 0 0
0.125 0 0
0.125 0 0
0.03125 0 0
0.03125 0 0
0.03125 0 0
0.03125 0 0
0.125 0 0
0.125 0 0
0.125 0 0
0.03125 0 0
0.03125 0 0
0.03125 0 0
0.03125 0 0
0.125 0 0
0.125 0 0
0.125 0 0
0.03125 0 0
0.03125 0 0
0.03125 0 0
0.03125 0 0
0.125 0 0
0.125 0 0
0.125 0 0
0.03125 0 0
0.03125 0 0
0.03125 0 0
0.03125 0 0
0.125 0 0
0.125 0 0
0.125 0 0
0.03125 0 0
0.03125 0 0
0.03125 0 0
0.03125 0 0
0.125 0 0
0.125 0 0
0.125 0 0
0.03125 0 0
0.03125 0 0
0.03125 0 0
0.03125 0 0
0.125 0 0
0.125 0 0
0.125 0 0
0.03125 0 0
0.03125 0 0
0.03125 0 0
0.03125 0 0
0.125 0 0
0.125 0 0
0.125 0 0
0.03125 0 0
0.03125 0 0
0.03125 0 0
0.03125 0 0
0.125 0 0
0.125 0 0
0.125 0 0
0.03125 0 0
0.03125 0 0
0.03125 0 0
0.03125 0 0
0.125 0 0
0.125 0 0
0.125 0 0
0.03125 0 0
0.03125 0 0
0.03125 0 0
0.03125 0 0
0.125 0 0
0.125 0 0
0.125 0 0
0.03125 0 0
0.03125 0 0
0.03125 0 0
0.03125 0 0
0.125 0 0
0.125 0 0
0.125 0 0
0.03125 0 0
0.03125 0 0
0.03125 0 0
0.03125 0 0
0.125 0 0
0.125 0 0
0.125 0 0
0.03125 0 0
0.03125 0 0
0.03125 0 0
0.03125 0 0
0.125 0 0
0.125 0 0
0.125 0 0
0.03125 0 0
0.03125 0 0
0.03125 0 0
0.03125 0 0
0.125 0 0
0.125 0 0
0.125 0 0
0.03125 0 0
0.03125 0 0
0.03125 0 0
0.03125 0 0
0.125 0 0
0.125 0 0
0.125 0 0
0.03125 0 0
0.03125 0 0
0.03125 0 0
0.03125 0 0
0.125 0 0
0.125 0 0
0.125 0 0
0.03125 0 0
0.03125 0 0
0.03125 0 0
0.03125 0 0
0.125 0 0
0.125 0 0
0.125 0 0
0.03125 0 0
0.03125 0 0
0.03125 0 0
0.03125 0 0
0.125 0 0
0.125 0 0
0.125 0 0
0.03125 0 0
0.03125 0 0
0.03125 0 0
0.03125 0 0
0.125 0 0
0.125 0 0
0.125 0 0
0.03125 0 0
0.03125 0 0
0.03125 0 0
0.03125 0 0
0.125 0 0
0.125 0 0
0.125 0 0
0.03125 0 0
0.03125 0 0
0.03125 0 0
0.03125 0 0
0.125 0 0
0.125 0 0
0.125 0 0
0.03125 0 0
0.03125 0 0
0.03125 0 0
0.03125 0 0
0.125 0 0
0.125 0 0
0.125 0 0
0.03125 0 0
0.03125 0 0
0.03125 0 0
0.03125 0 0
0.125 0 0
0.125 0 0
0.125 0 0
0.03125 0 0
0.03125 0 0
0.03125 0 0
0.03125 0 0
0.125 0 0
0.125 0 0
0.125 0 0
