Compiler and run-time data
===========================================================================
RASPA 2.0.37
Compiled as a 64-bits application
Compiler: gcc Intel(R) C++ gcc 4.8.5 mode
Compile Date = May 12 2020, Compile Time = 18:40:55

Sun Jun  6 21:32:30 2021
Simulation started on Sunday, June 06.
The start time was 09:32 PM.

Hostname:    The start time was 09:32 PM.
OS type:     The start time was 09:32 PM.
OS release:  The start time was 09:32 PM.
OS version:  The start time was 09:32 PM.

Simulation
===========================================================================
Dimensions: 3
Random number seed: 1623011549
RASPA directory set to: /mnt/iusers01/ceas01/m86397ah/Installed_software/RASPA
String appended to output-files: 
Number of cycles: 100000
Number of initializing cycles: 100000
Number of equilibration cycles: 0
Print every: 1000
Triclinic boundary condition applied
Timestep: 0.000500
	Degrees of freedom:                        0
	Translational Degrees of freedom:          0
	Rotational Degrees of freedom:             0
	Degrees of freedom Framework:              0


Mutual consistent basic set of units:
======================================
Unit of temperature: Kelvin
Unit of length:      1e-10 [m]
Unit of time:        1e-12 [s]
Unit of mass:        1.66054e-27 [kg]
Unit of charge:      1.60218e-19 [C/particle]

Derived units and their conversion factors:
===========================================
Unit of energy:              1.66054e-23 [J]
Unit of force:               1.66054e-13 [N]
Unit of pressure:            1.66054e+07 [Pa]
Unit of velocity:            100 [m/s]
Unit of acceleration:        1e-08 [m^2/s]
Unit of diffusion:           1e-08 [m^2/s]
Unit of dipole moment:       1.60218e-29 [C.m]
Unit of electric potential:  0.000103643 [V]
Unit of electric field:      1.03643e+06 [V]
Unit of polarizability:      1.54587e-35 [-]
Unit of Coulomb potential:   167101.0800066561  [K]
Unit of dielectric constant: 0.0000154587       [s^2 C^2/(kg m^3)]
Unit of wave vectors:        5.3088374589       [cm^1]
Boltzmann constant:          0.8314464919       [-]

Internal conversion factors:
===========================================
Energy to Kelvin:                                    1.2027242847
FH correction factor                                 2.0211930949
Heat capacity conversion factor:                    10.0000088723
From Debye to internal units:                        4.8032067991
Isothermal compressibility conversion factor:        0.0000000602

Energy conversion factors:
===========================================
From mdyne/A to kcal/mol/A^2:           143.933
From mdyne/A to kj/mol/A^2:             602.214
From mdyne/A to K/A^2:                  72429.7
From mdyne A/rad^2 to kcal/mol/deg^2:   0.0438444


Properties computed
===========================================================================
Movies: yes
	Movie snapshots are appended to file every 1000 cycles
Radial Distribution Function: no
Number of molecules GCMC histogram: no
Histogram of the molecule positions: no
Free energy profiles: no
Pore Size Distribution Function: no
End-to-end distance: no
Histogram of the energy of the system: no
Compute thermodynamic factors: no
Framework spacing histograms: no
Residence times histograms: no
Distance histograms: no
Bend Angle histograms: no
Dihedral angle histograms: no
Angle between planes histograms: no
Molecule properties: no
Infra-red spectra: no
Mean-squared displacement using modified order-N algorithm: no
Velocity-autocorrelation function modified order-N algorithm: no
Rotational velocity-autocorrelation function modified order-N algorithm: no
Molecular orientation-autocorrelation function modified order-N algorithm: no
Bond orientation-autocorrelation function modified order-N algorithm: no
Mean-squared displacement (conventional algorithm): no
Velocity-autocorrelation function (conventional algorithm): no
3D density grid for adsorbates: no
Compute cation an/or adsorption sites: no
dcTST snapshots: no
Compute pressure and stress: no


VTK
===========================================================================
VTK fractional-range position framework atoms: [-0.001000,1.001000] [-0.001000,1.001000] [-0.001000,1.001000]
VTK fractional-range position framework bonds: [-0.151000,1.151000] [-0.151000,1.151000] [-0.151000,1.151000]
VTK fractional-range com-position adsorbate molecules: [-0.101000,1.101000] [-0.101000,1.101000] [-0.101000,1.101000]
VTK fractional-range com-position cation molecules: [-0.101000,1.101000] [-0.101000,1.101000] [-0.101000,1.101000]
	3D free energy grid made for the full simulation-cell


Thermo/Baro-stat NHC parameters
===========================================================================
External temperature: 87 [K]
Beta: 0.0138244 [energy unit]
External Pressure: 101325 [Pa]


Thermostat chain-length: 3
Timescale parameter for thermostat: 0.150000 [ps]
Barostat chain-length:   3
Timescale parameter for barostat:   0.150000 [ps]

Number of Yoshida-Suzuki decomposition steps: 5
Number of respa steps: 5


Method and settings for electrostatics
===============================================================================
Dielectric constant of the medium : 1.000000
Charge from charge-equilibration: no
Ewald summation is used (exact solution of a periodic system)
Relative precision                : 1e-06
Alpha convergence parameter       : 0.265058
kvec (x,y,z)                      : 10 10 10


CFC-RXMC parameters
===========================================================================
Number of reactions: 0


Rattle parameters
===========================================================================
Distance constraint type: r^2-r^2_0
Bend angle constraint type: theta-theta_0
Dihedral angle constraint type: phi-phi_0
Inversion-bend angle constraint type: chi-chi_0
Out-of-plane distance constraint type: r-r_0


Spectra parameters
===========================================================================
Compute normal modes: no


Minimization parameters
===========================================================================
Generalized coordinates are: Cartesian center-of-mass, elements of the orientational matrix p1,p2,p3 and strain
Potential derivatives are evaluated: analytically
Translation of the system is removed from the generalized Hessian: no
Rotation of the system is removed from the generalized Hessian: no
Maximum step-length: 0.3
Convergence factor: 1
Maximum number of minimization steps: 10000
Use gradients in the line-minimizations: yes
RMS gradient tolerance: 1e-06
Maximum gradient tolerance: 1e-06

Distance constraints: 0
Angle constraints: 0
Dihedral constraints: 0

Improper dihedral constraints: 0

Inversion-bend constraints: 0

Out-of-plane constraints: 0

Harmonic distance constraints: 0
Harmonic angle constraints: 0
Harmonic dihedral constraints: 0

Dihedral mid-point measurements: 0

All framework atoms are fixed

Fixed adsorbate atoms:  
Fixed adsorbate groups (center-of-mass):  
Fixed adsorbate groups (orientation):  

Fixed cation atoms:  
Fixed cation groups (center-of-mass):  
Fixed cation groups (orientation):  


dcTST parameters
===========================================================================
Free energy profiles computed: no
Free energy profiles written every 5000 cycles
Free energy mapping: mapped to a,b,c-coordinates
BarrierPosition:       0.0000000000       0.0000000000       0.0000000000
BarrierNormal:         0.0000000000       0.0000000000       0.0000000000
Start with a molecule on top of the barrier: no
Maximum distance to barrier (e.g. distance to minumum free energy):       0.0000000000 [A]
Maximum trajectory time:      10.0000000000 [ps]
Each configuration is used with 5 different initial velocities


Cbmc parameters
===========================================================================
Biasing method: using only the VDW part
Number of trial positions:                                       10
Number of trial positions (reinsertion):                         10
Number of trial positions (partial reinsertion):                 10
Number of trial positions (identity-change):                     10
Number of trial positions (Gibbs particle transfer):             10
Number of trial positions (insertion/deletion):                  10
Number of trial positions (Widom insertion):                     10
Number of trial positions coupled Torsion-selection:             100
Number of trial positions first bead:                            10
Number of trial positions first bead (reinsertion):              10
Number of trial positions first bead (partial reinsertion):      10
Number of trial positions first bead (identity-change):          10
Number of trial positions first bead (Gibbs particle transfer):  10
Number of trial positions first bead (insertion/deletion):       10
Number of trial positions first bead (Widom insertion):          10
Number of trial moves per open bead:                             150
Target acceptance ratio small-mc scheme:                         0.400000
Energy overlap criteria:                                         1e+07
Minimal Rosenbluth factor:                                       1e-150


Pseudo atoms: 7
===========================================================================
Pseudo Atom[   0] Name UNIT     Oxidation:          Element: H    pdb-name: H    Scat. Types:   1   1 Mass=1.000000000  B-factor:0.000   
                 Charge=1.000000000          Polarization=0.000000000  [A^3] (considered a charged atom and no polarization)  Interactions: yes
                 Anisotropic factor:    0.000 [-] (Absolute), Radius:    1.000 [A], Framework-atom:  no
Pseudo Atom[   1] Name DUMMY    Oxidation: +0       Element: H    pdb-name: H    Scat. Types:   1   1 Mass=1.000000000  B-factor:1.000   
                 Charge=0.000000000          Polarization=0.000000000  [A^3] (considered a chargeless atom and no polarization)  Interactions:  no
                 Anisotropic factor:    0.000 [-] (Absolute), Radius:    1.000 [A], Framework-atom:  no
Pseudo Atom[   2] Name He       Oxidation: +0       Element: He   pdb-name: He   Scat. Types:   3   2 Mass=4.002602000  B-factor:1.000   
                 Charge=0.000000000          Polarization=0.000000000  [A^3] (considered a chargeless atom and no polarization)  Interactions: yes
                 Anisotropic factor:    0.000 [-] (Absolute), Radius:    1.000 [A], Framework-atom:  no
Pseudo Atom[   3] Name Ar       Oxidation: +0       Element: Ar   pdb-name: Ar   Scat. Types:  19  18 Mass=39.948000000 B-factor:1.000   
                 Charge=0.000000000          Polarization=0.000000000  [A^3] (considered a chargeless atom and no polarization)  Interactions: yes
                 Anisotropic factor:    0.000 [-] (Absolute), Radius:    1.000 [A], Framework-atom:  no
Pseudo Atom[   4] Name T        Oxidation: +0       Element: Si   pdb-name: Si   Scat. Types:  15  14 Mass=28.085500000 B-factor:1.000   
                 Charge=0.000000000          Polarization=0.000000000  [A^3] (considered a chargeless atom and no polarization)  Interactions: yes
                 Anisotropic factor:    0.000 [-] (Absolute), Radius:    1.180 [A], Framework-atom: yes (charge from pseudo-atoms file)
Pseudo Atom[   5] Name Al       Oxidation: +0       Element: Al   pdb-name: Al   Scat. Types:  14  13 Mass=26.981539000 B-factor:1.000   
                 Charge=0.000000000          Polarization=0.000000000  [A^3] (considered a chargeless atom and no polarization)  Interactions: yes
                 Anisotropic factor:    0.000 [-] (Absolute), Radius:    1.180 [A], Framework-atom:  no
Pseudo Atom[   6] Name O        Oxidation: +0       Element: O    pdb-name: O    Scat. Types:   9   8 Mass=15.999400000 B-factor:1.000   
                 Charge=0.000000000          Polarization=0.000000000  [A^3] (considered a chargeless atom and no polarization)  Interactions: yes
                 Anisotropic factor:    0.000 [-] (Absolute), Radius:    0.500 [A], Framework-atom: yes (charge from pseudo-atoms file)


Forcefield: local
===========================================================================
Minimal distance: 1
CutOff VDW : 12.800000 (163.840000)
CutOff VDW switching on: 11.520000 (132.710400)
CutOff charge-charge : 12.000000 (144.000000)
CutOff charge-charge switching on: 7.800000 (60.840000)
CutOff charge-bonddipole : 12.000000 (144.000000)
CutOff charge-bondipole switching on: 8.400000 (70.560000)
CutOff bonddipole-bonddipole : 12.000000 (144.000000)
CutOff bonddipole-bondipole switching on: 9.000000 (81.000000)
Polarization is neglected
All potentials are unshifted !!!!!!

General mixing rule: Lorentz-Berthelot mixing rules are used FIRST for cross terms
0 cross terms are overwritten using the individual mixing rules from the file 'force_field_mixing_rules.def'
and then 0 terms are overwritten using the specific interactions from the file 'force_field.def'

The force field and all the interactions:
     He -      He [LENNARD_JONES] p_0/k_B:  10.22000 [K], p_1: 2.58000 [A], shift/k_B:   0.00000000 [K], tailcorrection: no
     He -      Ar [LENNARD_JONES] p_0/k_B:  34.99080 [K], p_1: 2.99000 [A], shift/k_B:   0.00000000 [K], tailcorrection: no
     He -       T [LENNARD_JONES] p_0/k_B:  45.45298 [K], p_1: 3.20300 [A], shift/k_B:   0.00000000 [K], tailcorrection: no
     He -      Al [LENNARD_JONES] p_0/k_B:  50.94376 [K], p_1: 3.29400 [A], shift/k_B:   0.00000000 [K], tailcorrection: no
     He -       O [LENNARD_JONES] p_0/k_B:  17.56827 [K], p_1: 2.84900 [A], shift/k_B:   0.00000000 [K], tailcorrection: no
     Ar -      Ar [LENNARD_JONES] p_0/k_B: 119.80000 [K], p_1: 3.40000 [A], shift/k_B:   0.00000000 [K], tailcorrection: no
     Ar -       T [LENNARD_JONES] p_0/k_B: 155.61995 [K], p_1: 3.61300 [A], shift/k_B:   0.00000000 [K], tailcorrection: no
     Ar -      Al [LENNARD_JONES] p_0/k_B: 174.41907 [K], p_1: 3.70400 [A], shift/k_B:   0.00000000 [K], tailcorrection: no
     Ar -       O [LENNARD_JONES] p_0/k_B:  60.14948 [K], p_1: 3.25900 [A], shift/k_B:   0.00000000 [K], tailcorrection: no
      T -       T [LENNARD_JONES] p_0/k_B: 202.15000 [K], p_1: 3.82600 [A], shift/k_B:   0.00000000 [K], tailcorrection: no
      T -      Al [LENNARD_JONES] p_0/k_B: 226.57001 [K], p_1: 3.91700 [A], shift/k_B:   0.00000000 [K], tailcorrection: no
      T -       O [LENNARD_JONES] p_0/k_B:  78.13405 [K], p_1: 3.47200 [A], shift/k_B:   0.00000000 [K], tailcorrection: no
     Al -      Al [LENNARD_JONES] p_0/k_B: 253.94000 [K], p_1: 4.00800 [A], shift/k_B:   0.00000000 [K], tailcorrection: no
     Al -       O [LENNARD_JONES] p_0/k_B:  87.57276 [K], p_1: 3.56300 [A], shift/k_B:   0.00000000 [K], tailcorrection: no
      O -       O [LENNARD_JONES] p_0/k_B:  30.20000 [K], p_1: 3.11800 [A], shift/k_B:   0.00000000 [K], tailcorrection: no


MoleculeDefinitions:
===========================================================================
Component 0 [argon] (Adsorbate molecule)

	MoleculeDefinitions: argon
	Component contains no atoms with charge
	Component contains no atoms with point dipoles (polarization)
	Component has a net charge of 0.000000

	Ideal chain Rosenbluth weight: 1
	Ideal chain total energy: 0.000000

	Critical temparure [K]: 154.580000
	Critical pressure [Pa]: 5043000.000000
	Acentric factor [-]: 0.000000

	RXMC partition factor ln(q/V) [ln(A^(-3))]:       0.0000000000

	Liquid=stable, Vapour=metastable

	MolFraction:           1.0000000000 [-]
	Compressibility:       0.0034503778 [-]

	Density of the bulk fluid phase:    1621.7781374247 [kg/m^3]

	Binary mixture EOS parameters:  (0): 0.000000

	Amount of excess molecules:       0.0000000000 [-]

	Conversion factor molecules/unit cell -> mol/kg:       0.0216709412 [-]
	Conversion factor molecules/unit cell -> mg/g:       0.8657107597 [-]
	Conversion factor molecules/unit cell -> cm^3 STP/gr:       0.4857319509 [-]
	Conversion factor molecules/unit cell -> cm^3 STP/cm^3:       0.8234040681 [-]
	Conversion factor mol/kg -> cm^3 STP/gr:      22.4139757476 [-]
	Conversion factor mol/kg -> cm^3 STP/cm^3:      37.9957686126 [-]

	Partial pressure:    101325.00000000000000 [Pa]
	                        759.93750000000000 [Torr]
	                          1.01325000000000 [bar]
	                          1.00000000000000 [atm]

	Fugacity coefficient:       1.0000000000 [-]

	Partial fugacity:    101325.00000000000000 [Pa]
	                        759.93750000000000 [Torr]
	                          1.01325000000000 [bar]
	                          1.00000000000000 [atm]

	Molecule contains 1 number of atoms
		atom:    0  is of type:    3 [        Ar] (group: 0)

	Molecule contains 0 chirality centers

	Molecule contains 1 number of groups

		group: 0 containing: 1 elements
		-------------------------------------------------
		the group is modelled as flexible, i.e. no constraints
		Mass: 39.948000 [a.u.]
		Mass: 1.467538 [kg/m^3]

		Rotational Degrees of freedom: 0
		Diagonalized inertia vector:       0.0000000000
		                                   0.0000000000
		                                   0.0000000000
		element: 0 atom: 0 [        Ar] Charge:  0.000000 Anisotropy: 0.000000 Connectivity: 0 ()

		Dipole:           0.0000000000 [D]
		Quadrupole:       0.0000000000       0.0000000000       0.0000000000 [D Angstrom]
		Quadrupole tensor [D Angstrom]
				       0.0000000000       0.0000000000       0.0000000000
				       0.0000000000       0.0000000000       0.0000000000
				       0.0000000000       0.0000000000       0.0000000000

	Starting bead for growth               : 0

	Degrees of freedom                     : 0
	Translational degrees of freedom       : 0
	Rotational degrees of freedom          : 0
	Vibrational degrees of freedom         : 0
	Constraint degrees of freedom          : 0

	Number of atoms                        : 1

	Number of constraint bonds             : 0
	Number of constraint bends             : 0
	Number of constraint inversion bends   : 0
	Number of constraint torsions          : 0
	Number of constraint improper torsions : 0
	Number of constraint improper torsions : 0

	Number of bonds                        : 0
	Number of Urey-Bradleys                : 0
	Number of bends                        : 0
	Number of inversion bends              : 0
	Number of torsions                     : 0
	Number of improper torsions            : 0
	Number of improper torsions            : 0

	Number of bond/bond cross terms        : 0
	Number of bond/bend cross terms        : 0
	Number of bend/bend cross terms        : 0
	Number of stretch/torsion cross terms  : 0
	Number of bend/torsion cross terms     : 0

	Number of charges                      : 0
	Number of bond-dipoles                 : 0

	Number of intra Van der Waals                             : 0
	Number of intra charge-charge Coulomb                     : 0
	Number of intra charge-bonddipole Coulomb                 : 0
	Number of intra bonddipole-bonddipole Coulomb             : 0

	Number of excluded intra charge-charge Coulomb                     : 0
	Number of excluded intra charge-bonddipole Coulomb                 : 0
	Number of excluded intra bonddipole-bonddipole Coulomb             : 0

	Number of cbmc-config moves                               : 0

	Particle Moves:             
		ProbabilityTranslationMove:                  20.000000
			TranslationDirection:      XYZ
		Percentage of random translation moves:            0.000000
		Percentage of rotation moves:                      20.000000
		Percentage of random rotation moves:               0.000000
		Percentage of partial reinsertion moves:           0.000000
		Percentage of reinsertion moves:                   20.000000
		Percentage of reinsertion-in-place moves:          0.000000
		Percentage of reinsertion-in-plane moves:          0.000000
		Percentage of identity-change moves:               0.000000
		Percentage of swap (insert/delete) moves:          40.000000
		Percentage of CF swap lambda moves:                0.000000
		Percentage of CB/CFMC swap lambda moves:           0.000000
		Percentage of Widom insertion moves:               0.000000
		Percentage of CF-Widom insertion moves:            0.000000
		Percentage of Gibbs Widom insertion moves:         0.000000
		Percentage of surface-area moves:                  0.000000
		Percentage of Gibbs particle-transfer moves:       0.000000
		Percentage of Gibbs identity-change moves:         0.000000
		Percentage of CF Gibbs lambda-transfer moves:      0.000000
		Percentage of CB/CFMC Gibbs lambda-transfer moves: 0.000000
		Percentage of exchange frac./int. particle moves:  0.000000
		Percentage of fractional mol. to other box moves:  0.000000
		Percentage of lambda-change moves:                 0.000000
		Percentage of fractional to integer moves:         0.000000

	System Moves:
		Percentage of parallel-tempering moves:            0.000000
		Percentage of hyper-parallel-tempering moves:      0.000000
		Percentage of parallel-mol-fraction moves:         0.000000
			   Component A: 0 B: 1
		Percentage of chiral inversion moves:              0.000000
		Percentage of Hybrid-NVE moves:                    0.000000
		Percentage of Hybrid-NPH moves:                    0.000000
		Percentage of Hybrid-NPHPR moves:                  0.000000
		Percentage of volume-change moves:                 0.000000
		Percentage of box-shape-change moves:              0.000000
		Percentage of Gibbs volume-change moves:           0.000000
		Percentage of framework-change moves:              0.000000
		Percentage of framework-shift moves:               0.000000
		Percentage of reactive MC moves:                   0.000000

	Moves are restricted: No
	No biased sampling used for this component


	number of identity-config changes: 1
	--------------------------------------------
	nr fixed 1: 0 

	Number of pockets blocked in a unitcell: 0
		Pockets are NOT blocked for this component



Framework Status
===========================================================================
Lowenstein's rule obeyed by framework
	Framework is modelled as: rigid

	Number of charges:                               0
	Number of bonddipoles:                           0


System Properties
===========================================================================
Unit cell size: 35.622000 35.622000 35.622000
Cell angles (radians)  alpha: 1.570796 beta: 1.570796 gamma: 1.570796
Cell angles (degrees)  alpha: 90.000000 beta: 90.000000 gamma: 90.000000
Number of unitcells [a]: 1
Number of unitcells [b]: 1
Number of unitcells [c]: 1

TRICLINIC Boundary conditions: alpha!=90 or beta!=90 or gamma!=90

Cartesian axis A is collinear with crystallographic axis a
Cartesian axis B is collinear with (axb)xA
Cartesian axis C is collinear with (axb)

lengths of cell vectors:
 35.62200  35.62200  35.62200
cosines of cell angles:
  0.00000   0.00000   0.00000
perpendicular cell widths:
 35.62200  35.62200  35.62200
volume of the cell: 45201.713461847998 (A^3)

Orthogonalization matrix Box
Transforms fractional coordinates abc into orthonormal Cartesian coordinates xyz
Deorthogonalization matrix InverseBox
Transforms orthonormal Cartesian coordinates xyz into fractional coordinates xyz

Box[0]:
	   35.622000000000     0.000000000000     0.000000000000
	    0.000000000000    35.622000000000     0.000000000000
	    0.000000000000     0.000000000000    35.622000000000

Inverse box[0]:
	    0.028072539442    -0.000000000000    -0.000000000000
	    0.000000000000     0.028072539442    -0.000000000000
	    0.000000000000     0.000000000000     0.028072539442


Unitcell box[0]:
	   35.622000000000     0.000000000000     0.000000000000
	    0.000000000000    35.622000000000     0.000000000000
	    0.000000000000     0.000000000000    35.622000000000

Unitcell inverse box[0]:
	    0.028072539442    -0.000000000000    -0.000000000000
	    0.000000000000     0.028072539442    -0.000000000000
	    0.000000000000     0.000000000000     0.028072539442

lengths of cell vectors (inverse box):
  0.02807   0.02807   0.02807
cosines of cell angles (inverse box):
 -0.00000  -0.00000  -0.00000
perpendicular cell widths (inverse):
  0.02807   0.02807   0.02807
volume of the cell: 45201.713461847998 (A^3)

No replicas are used
Framework is simulated as 'rigid'
Number of framework atoms: 2304
Number of framework atoms in the unit cell: 2304
Framework Mass: 46144.742400001182 [g/mol]
Framework Density:  1695.182016813314 [kg/m^3]    0.5899071545602 [cm^3/g]
Helium void fraction:    0.00000000
Available pore volume:    0.00000000 [A^3]    0.00000000 [cm^3/g]
Conversion factor from molecule/unit cell -> kmol/m^3: 0.0367362, kmol/m^3 accesible pore volume: inf

Number Of Frameworks (per system): 1
----------------------------------------------------------------------
Framework name: zeolite
Space group: 227
	Identifier: 526
	short international Hermann-Mauguin symbol: F d -3 m:2
	long international Hermann-Mauguin symbol: F 41/d -3 2/m:2
	Hall symbol: -F 4vw 2vw 3
	Number of lattice translations: 4 [ (0,0,0) (0,0.5,0.5) (0.5,0,0.5) (0.5,0.5,0) ]
	acentric/centric: acentric
	chiral: yes
	enantiomorphic: no
	number of operators: 192
		'x,y,z'
		'-x+3/4,-y+1/4,z+1/2'
		'-x+1/4,y+1/2,-z+3/4'
		'x+1/2,-y+3/4,-z+1/4'
		'z,x,y'
		'z+1/2,-x+3/4,-y+1/4'
		'-z+3/4,-x+1/4,y+1/2'
		'-z+1/4,x+1/2,-y+3/4'
		'y,z,x'
		'-y+1/4,z+1/2,-x+3/4'
		'y+1/2,-z+3/4,-x+1/4'
		'-y+3/4,-z+1/4,x+1/2'
		'y+3/4,x+1/4,-z+1/2'
		'-y,-x,-z'
		'y+1/4,-x+1/2,z+3/4'
		'-y+1/2,x+3/4,z+1/4'
		'x+3/4,z+1/4,-y+1/2'
		'-x+1/2,z+3/4,y+1/4'
		'-x,-z,-y'
		'x+1/4,-z+1/2,y+3/4'
		'z+3/4,y+1/4,-x+1/2'
		'z+1/4,-y+1/2,x+3/4'
		'-z+1/2,y+3/4,x+1/4'
		'-z,-y,-x'
		'-x,-y,-z'
		'x+1/4,y+3/4,-z+1/2'
		'x+3/4,-y+1/2,z+1/4'
		'-x+1/2,y+1/4,z+3/4'
		'-z,-x,-y'
		'-z+1/2,x+1/4,y+3/4'
		'z+1/4,x+3/4,-y+1/2'
		'z+3/4,-x+1/2,y+1/4'
		'-y,-z,-x'
		'y+3/4,-z+1/2,x+1/4'
		'-y+1/2,z+1/4,x+3/4'
		'y+1/4,z+3/4,-x+1/2'
		'-y+1/4,-x+3/4,z+1/2'
		'y,x,z'
		'-y+3/4,x+1/2,-z+1/4'
		'y+1/2,-x+1/4,-z+3/4'
		'-x+1/4,-z+3/4,y+1/2'
		'x+1/2,-z+1/4,-y+3/4'
		'x,z,y'
		'-x+3/4,z+1/2,-y+1/4'
		'-z+1/4,-y+3/4,x+1/2'
		'-z+3/4,y+1/2,-x+1/4'
		'z+1/2,-y+1/4,-x+3/4'
		'z,y,x'
		'x,y+1/2,z+1/2'
		'-x+3/4,-y+3/4,z'
		'-x+1/4,y,-z+1/4'
		'x+1/2,-y+1/4,-z+3/4'
		'z,x+1/2,y+1/2'
		'z+1/2,-x+1/4,-y+3/4'
		'-z+3/4,-x+3/4,y'
		'-z+1/4,x,-y+1/4'
		'y,z+1/2,x+1/2'
		'-y+1/4,z,-x+1/4'
		'y+1/2,-z+1/4,-x+3/4'
		'-y+3/4,-z+3/4,x'
		'y+3/4,x+3/4,-z'
		'-y,-x+1/2,-z+1/2'
		'y+1/4,-x,z+1/4'
		'-y+1/2,x+1/4,z+3/4'
		'x+3/4,z+3/4,-y'
		'-x+1/2,z+1/4,y+3/4'
		'-x,-z+1/2,-y+1/2'
		'x+1/4,-z,y+1/4'
		'z+3/4,y+3/4,-x'
		'z+1/4,-y,x+1/4'
		'-z+1/2,y+1/4,x+3/4'
		'-z,-y+1/2,-x+1/2'
		'-x,-y+1/2,-z+1/2'
		'x+1/4,y+1/4,-z'
		'x+3/4,-y,z+3/4'
		'-x+1/2,y+3/4,z+1/4'
		'-z,-x+1/2,-y+1/2'
		'-z+1/2,x+3/4,y+1/4'
		'z+1/4,x+1/4,-y'
		'z+3/4,-x,y+3/4'
		'-y,-z+1/2,-x+1/2'
		'y+3/4,-z,x+3/4'
		'-y+1/2,z+3/4,x+1/4'
		'y+1/4,z+1/4,-x'
		'-y+1/4,-x+1/4,z'
		'y,x+1/2,z+1/2'
		'-y+3/4,x,-z+3/4'
		'y+1/2,-x+3/4,-z+1/4'
		'-x+1/4,-z+1/4,y'
		'x+1/2,-z+3/4,-y+1/4'
		'x,z+1/2,y+1/2'
		'-x+3/4,z,-y+3/4'
		'-z+1/4,-y+1/4,x'
		'-z+3/4,y,-x+3/4'
		'z+1/2,-y+3/4,-x+1/4'
		'z,y+1/2,x+1/2'
		'x+1/2,y,z+1/2'
		'-x+1/4,-y+1/4,z'
		'-x+3/4,y+1/2,-z+1/4'
		'x,-y+3/4,-z+3/4'
		'z+1/2,x,y+1/2'
		'z,-x+3/4,-y+3/4'
		'-z+1/4,-x+1/4,y'
		'-z+3/4,x+1/2,-y+1/4'
		'y+1/2,z,x+1/2'
		'-y+3/4,z+1/2,-x+1/4'
		'y,-z+3/4,-x+3/4'
		'-y+1/4,-z+1/4,x'
		'y+1/4,x+1/4,-z'
		'-y+1/2,-x,-z+1/2'
		'y+3/4,-x+1/2,z+1/4'
		'-y,x+3/4,z+3/4'
		'x+1/4,z+1/4,-y'
		'-x,z+3/4,y+3/4'
		'-x+1/2,-z,-y+1/2'
		'x+3/4,-z+1/2,y+1/4'
		'z+1/4,y+1/4,-x'
		'z+3/4,-y+1/2,x+1/4'
		'-z,y+3/4,x+3/4'
		'-z+1/2,-y,-x+1/2'
		'-x+1/2,-y,-z+1/2'
		'x+3/4,y+3/4,-z'
		'x+1/4,-y+1/2,z+3/4'
		'-x,y+1/4,z+1/4'
		'-z+1/2,-x,-y+1/2'
		'-z,x+1/4,y+1/4'
		'z+3/4,x+3/4,-y'
		'z+1/4,-x+1/2,y+3/4'
		'-y+1/2,-z,-x+1/2'
		'y+1/4,-z+1/2,x+3/4'
		'-y,z+1/4,x+1/4'
		'y+3/4,z+3/4,-x'
		'-y+3/4,-x+3/4,z'
		'y+1/2,x,z+1/2'
		'-y+1/4,x+1/2,-z+3/4'
		'y,-x+1/4,-z+1/4'
		'-x+3/4,-z+3/4,y'
		'x,-z+1/4,-y+1/4'
		'x+1/2,z,y+1/2'
		'-x+1/4,z+1/2,-y+3/4'
		'-z+3/4,-y+3/4,x'
		'-z+1/4,y+1/2,-x+3/4'
		'z,-y+1/4,-x+1/4'
		'z+1/2,y,x+1/2'
		'x+1/2,y+1/2,z'
		'-x+1/4,-y+3/4,z+1/2'
		'-x+3/4,y,-z+3/4'
		'x,-y+1/4,-z+1/4'
		'z+1/2,x+1/2,y'
		'z,-x+1/4,-y+1/4'
		'-z+1/4,-x+3/4,y+1/2'
		'-z+3/4,x,-y+3/4'
		'y+1/2,z+1/2,x'
		'-y+3/4,z,-x+3/4'
		'y,-z+1/4,-x+1/4'
		'-y+1/4,-z+3/4,x+1/2'
		'y+1/4,x+3/4,-z+1/2'
		'-y+1/2,-x+1/2,-z'
		'y+3/4,-x,z+3/4'
		'-y,x+1/4,z+1/4'
		'x+1/4,z+3/4,-y+1/2'
		'-x,z+1/4,y+1/4'
		'-x+1/2,-z+1/2,-y'
		'x+3/4,-z,y+3/4'
		'z+1/4,y+3/4,-x+1/2'
		'z+3/4,-y,x+3/4'
		'-z,y+1/4,x+1/4'
		'-z+1/2,-y+1/2,-x'
		'-x+1/2,-y+1/2,-z'
		'x+3/4,y+1/4,-z+1/2'
		'x+1/4,-y,z+1/4'
		'-x,y+3/4,z+3/4'
		'-z+1/2,-x+1/2,-y'
		'-z,x+3/4,y+3/4'
		'z+3/4,x+1/4,-y+1/2'
		'z+1/4,-x,y+1/4'
		'-y+1/2,-z+1/2,-x'
		'y+1/4,-z,x+1/4'
		'-y,z+3/4,x+3/4'
		'y+3/4,z+1/4,-x+1/2'
		'-y+3/4,-x+1/4,z+1/2'
		'y+1/2,x+1/2,z'
		'-y+1/4,x,-z+1/4'
		'y,-x+3/4,-z+3/4'
		'-x+3/4,-z+1/4,y+1/2'
		'x,-z+3/4,-y+3/4'
		'x+1/2,z+1/2,y'
		'-x+1/4,z,-y+1/4'
		'-z+3/4,-y+1/4,x+1/2'
		'-z+1/4,y,-x+1/4'
		'z,-y+3/4,-x+3/4'
		'z+1/2,y+1/2,x'
Framework is simulated as 'rigid'
Shift: 0.000000 0.000000 0.000000
Number of framework atoms: 2304
Number of asymmetric atoms: 17
Number of free framework atoms: 0
Number of fixed framework atoms: 2304
Number of framework atoms in the unit cell: 2304
Framework Mass: 46144.742400001182 [g/mol]
Framework Density:  1695.182016813314 [kg/m^3]
Framework has net charge: 0.000000
         largest charge : 0.000000
         smallest charge: 0.000000

Using FULL Host-guest interaction calculation (for testing purposes)

Current Atom Status
===========================================================================
Number of framework atoms        : 2304
Number of cations molecules      : 0
Number of adsorbate molecules    : 0
Component    0 :    0 molecules
Pseudo Atoms    0 [    UNIT]:    0 atoms
Pseudo Atoms    1 [   DUMMY]:    0 atoms
Pseudo Atoms    2 [      He]:    0 atoms
Pseudo Atoms    3 [      Ar]:    0 atoms
Pseudo Atoms    4 [       T]:  768 atoms
Pseudo Atoms    5 [      Al]:    0 atoms
Pseudo Atoms    6 [       O]: 1536 atoms


Current (initial full energy) Energy Status
===========================================================================

Internal energy:
Host stretch energy:                                            0.00000000
Host UreyBradley energy:                                        0.00000000
Host bend energy:                                               0.00000000
Host inversion-bend energy:                                     0.00000000
Host torsion energy:                                            0.00000000
Host improper torsion energy:                                   0.00000000
Host out-of-plane energy:                                       0.00000000
Host stretch/stretch energy:                                    0.00000000
Host bend/bend energy:                                          0.00000000
Host stretch/bend energy:                                       0.00000000
Host stretch/torsion energy:                                    0.00000000
Host bend/torsion energy:                                       0.00000000

Adsorbate stretch energy:                                       0.00000000
Adsorbate UreyBradley energy:                                   0.00000000
Adsorbate bend energy:                                          0.00000000
Adsorbate inversion-bend energy:                                0.00000000
Adsorbate torsion energy:                                       0.00000000
Adsorbate improper torsion energy:                              0.00000000
Adsorbate out-of-plane energy:                                  0.00000000
Adsorbate stretch/stretch energy:                               0.00000000
Adsorbate bend/bend energy:                                     0.00000000
Adsorbate stretch/bend energy:                                  0.00000000
Adsorbate stretch/torsion energy:                               0.00000000
Adsorbate bend/torsion energy:                                  0.00000000
Adsorbate intra VDW energy:                                     0.00000000
Adsorbate intra charge-charge Coulomb energy:                   0.00000000
Adsorbate intra charge-bonddipole Coulomb energy:               0.00000000
Adsorbate intra bonddipole-bonddipole Coulomb energy:           0.00000000

Cation stretch energy:                                          0.00000000
Cation UreyBradley energy:                                      0.00000000
Cation bend energy:                                             0.00000000
Cation inversion-bend energy:                                   0.00000000
Cation torsion energy:                                          0.00000000
Cation improper torsion energy:                                 0.00000000
Cation out-of-plane energy:                                     0.00000000
Cation stretch/stretch energy:                                  0.00000000
Cation bend/bend energy:                                        0.00000000
Cation stretch/bend energy:                                     0.00000000
Cation stretch/torsion energy:                                  0.00000000
Cation bend/torsion energy:                                     0.00000000
Cation intra VDW energy:                                        0.00000000
Cation intra charge-charge Coulomb energy:                      0.00000000
Cation intra charge-bonddipole Coulomb energy:                  0.00000000
Cation intra bonddipole-bonddipole Coulomb energy:              0.00000000

Host/Host energy:                                             0.00000000
	Host/Host VDW energy:                                         0.00000000
	Host/Host Coulomb energy:                                     0.00000000
	Host/Host charge-charge Real energy:                          0.00000000
	Host/Host charge-charge Fourier energy:                       0.00000000
	Host/Host charge-bonddipole Real energy:                      0.00000000
	Host/Host charge-bonddipole Fourier energy:                   0.00000000
	Host/Host bondipole-bonddipole Real energy:                   0.00000000
	Host/Host bondipole-bonddipole Fourier energy:                0.00000000

Host/Adsorbate energy:                                        0.00000000
	Host/Adsorbate VDW energy:                                    0.00000000
	Host/Adsorbate Coulomb energy:                                0.00000000
	Host/Adsorbate charge-charge Real energy:                     0.00000000
	Host/Adsorbate charge-charge Fourier energy:                  0.00000000
	Host/Adsorbate charge-bonddipole Real energy:                 0.00000000
	Host/Adsorbate charge-bonddipole Fourier energy:              0.00000000
	Host/Adsorbate bondipole-bonddipole Real energy:              0.00000000
	Host/Adsorbate bondipole-bonddipole Fourier energy:           0.00000000

Host/Cation energy:                                           0.00000000
	Host/Cation VDW energy:                                       0.00000000
	Host/Cation Coulomb energy:                                   0.00000000
	Host/Cation charge-charge Real energy:                        0.00000000
	Host/Cation charge-charge Fourier energy:                     0.00000000
	Host/Cation charge-bonddipole Real energy:                    0.00000000
	Host/Cation charge-bonddipole Fourier energy:                 0.00000000
	Host/Cation bondipole-bonddipole Real energy:                 0.00000000
	Host/Cation bondipole-bonddipole Fourier energy:              0.00000000

Adsorbate/Adsorbate energy:                                        0.00000000
	Adsorbate/Adsorbate VDW energy:                                    0.00000000
	Adsorbate/Adsorbate Coulomb energy:                                0.00000000
	Adsorbate/Adsorbate charge-charge Real energy:                     0.00000000
	Adsorbate/Adsorbate charge-charge Fourier energy:                  0.00000000
	Adsorbate/Adsorbate charge-bonddipole Real energy:                 0.00000000
	Adsorbate/Adsorbate charge-bonddipole Fourier energy:              0.00000000
	Adsorbate/Adsorbate bondipole-bonddipole Real energy:              0.00000000
	Adsorbate/Adsorbate bondipole-bonddipole Fourier energy:           0.00000000

Adsorbate/Cation energy:                                           0.00000000
	Adsorbate/Cation VDW energy:                                       0.00000000
	Adsorbate/Cation Coulomb energy:                                   0.00000000
	Adsorbate/Cation charge-charge Real energy:                        0.00000000
	Adsorbate/Cation charge-charge Fourier energy:                     0.00000000
	Adsorbate/Cation charge-bonddipole Real energy:                    0.00000000
	Adsorbate/Cation charge-bonddipole Fourier energy:                 0.00000000
	Adsorbate/Cation bondipole-bonddipole Real energy:                 0.00000000
	Adsorbate/Cation bondipole-bonddipole Fourier energy:              0.00000000

Cation/Cation energy:                                           0.00000000
	Cation/Cation VDW energy:                                       0.00000000
	Cation/Cation Coulomb energy:                                   0.00000000
	Cation/Cation charge-charge Real energy:                        0.00000000
	Cation/Cation charge-charge Fourier energy:                     0.00000000
	Cation/Cation charge-bonddipole Real energy:                    0.00000000
	Cation/Cation charge-bonddipole Fourier energy:                 0.00000000
	Cation/Cation bondipole-bonddipole Real energy:                 0.00000000
	Cation/Cation bondipole-bonddipole Fourier energy:              0.00000000

Polarization energy:
	Host polarization energy:                                     0.00000000
	Adsorbate polarization energy:                                0.00000000
	Cation polarization energy:                                   0.00000000
	Host back-polarization energy:                                     0.00000000
	Adsorbate back-polarization energy:                                0.00000000
	Cation back-polarization energy:                                   0.00000000

Tail-correction energy:                                       0.00000000

Distance constraints energy:                                  0.00000000
Angle constraints energy:                                     0.00000000
Dihedral constraints energy:                                  0.00000000
Inversion-bend constraints energy:                            0.00000000
Out-of-plane distance constraints energy:                     0.00000000
Exclusion constraints energy:                                 0.00000000

===================================================================
Total energy:     0.000000000000
	Total Van der Waals: 0.000000
	Total Coulomb: 0.000000

	Total Polarization: 0.000000







+++++++++++++++++++++++++++++++++++++++++++++++++++++++++++++++++++++++++
Starting simulation
+++++++++++++++++++++++++++++++++++++++++++++++++++++++++++++++++++++++++

[Init] Current cycle: 0 out of 100000
========================================================================================================

Net charge: 0 (F: 0, A: 0, C: 0)
Current Box:  35.62200   0.00000   0.00000 [A]
               0.00000  35.62200   0.00000 [A]
               0.00000   0.00000  35.62200 [A]
Box-lengths:  35.62200  35.62200  35.62200 Box-angles:   90.00000  90.00000  90.00000 [degrees]
Volume: 45201.71346 [A^3]

Loadings per component:
----------------------------------------------------------------------------------------------------------------------------------------------------
Component 0 (argon), current number of integer/fractional/reaction molecules: 0/0/0, density:   0.00000 [kg/m^3]
	absolute adsorption:   0.00000 [mol/uc],         0.0000 [mol/kg],              0.0000 [mg/g]
	                                                 0.0000 [cm^3 STP/g],          0.0000 [cm^3 STP/cm^3]
	excess adsorption:     0.00000 [mol/uc],         0.0000 [mol/kg],              0.0000 [mg/g]
	                                                 0.0000 [cm^3 STP/g],          0.0000 [cm^3 STP/cm^3]
----------------------------------------------------------------------------------------------------------------------------------------------------
Degrees of freedom: 0 0 0 0
Number of Framework-atoms:   2304
Number of Adsorbates:           0 (0 integer, 0 fractional, 0 reaction)
Number of Cations:              0 (0 integer, 0 fractional, 0 reaction

Current total potential energy:                 0.0000000000 [K]
	Current Host-Host energy:                     0.0000000000 [K]
	Current Host-Adsorbate energy:                0.0000000000 [K]
	Current Host-Cation energy:                   0.0000000000 [K]
	Current Adsorbate-Adsorbate energy:           0.0000000000 [K]
	Current Cation-Cation energy:                 0.0000000000 [K]
	Current Adsorbate-Cation energy:              0.0000000000 [K]



[Init] Current cycle: 1000 out of 100000
========================================================================================================

Net charge: 0 (F: 0, A: 0, C: 0)
Current Box:  35.62200   0.00000   0.00000 [A]
               0.00000  35.62200   0.00000 [A]
               0.00000   0.00000  35.62200 [A]
Box-lengths:  35.62200  35.62200  35.62200 Box-angles:   90.00000  90.00000  90.00000 [degrees]
Volume: 45201.71346 [A^3]

Loadings per component:
----------------------------------------------------------------------------------------------------------------------------------------------------
Component 0 (argon), current number of integer/fractional/reaction molecules: 285/0/0, density: 418.24850 [kg/m^3]
	absolute adsorption: 285.00000 [mol/uc],         6.1762 [mol/kg],            246.7276 [mg/g]
	                                               138.4336 [cm^3 STP/g],        234.6702 [cm^3 STP/cm^3]
	excess adsorption:   285.00000 [mol/uc],         6.1762 [mol/kg],            246.7276 [mg/g]
	                                               138.4336 [cm^3 STP/g],        234.6702 [cm^3 STP/cm^3]
----------------------------------------------------------------------------------------------------------------------------------------------------
Degrees of freedom: 855 0 855 0
Number of Framework-atoms:   2304
Number of Adsorbates:         285 (285 integer, 0 fractional, 0 reaction)
Number of Cations:              0 (0 integer, 0 fractional, 0 reaction

Current total potential energy:           -818300.3467093336 [K]
	Current Host-Host energy:                     0.0000000000 [K]
	Current Host-Adsorbate energy:          -772147.3214153672 [K]
	Current Host-Cation energy:                   0.0000000000 [K]
	Current Adsorbate-Adsorbate energy:      -46153.0252939645 [K]
	Current Cation-Cation energy:                 0.0000000000 [K]
	Current Adsorbate-Cation energy:              0.0000000000 [K]



[Init] Current cycle: 2000 out of 100000
========================================================================================================

Net charge: 0 (F: 0, A: 0, C: 0)
Current Box:  35.62200   0.00000   0.00000 [A]
               0.00000  35.62200   0.00000 [A]
               0.00000   0.00000  35.62200 [A]
Box-lengths:  35.62200  35.62200  35.62200 Box-angles:   90.00000  90.00000  90.00000 [degrees]
Volume: 45201.71346 [A^3]

Loadings per component:
----------------------------------------------------------------------------------------------------------------------------------------------------
Component 0 (argon), current number of integer/fractional/reaction molecules: 292/0/0, density: 428.52128 [kg/m^3]
	absolute adsorption: 292.00000 [mol/uc],         6.3279 [mol/kg],            252.7875 [mg/g]
	                                               141.8337 [cm^3 STP/g],        240.4340 [cm^3 STP/cm^3]
	excess adsorption:   292.00000 [mol/uc],         6.3279 [mol/kg],            252.7875 [mg/g]
	                                               141.8337 [cm^3 STP/g],        240.4340 [cm^3 STP/cm^3]
----------------------------------------------------------------------------------------------------------------------------------------------------
Degrees of freedom: 876 0 876 0
Number of Framework-atoms:   2304
Number of Adsorbates:         292 (292 integer, 0 fractional, 0 reaction)
Number of Cations:              0 (0 integer, 0 fractional, 0 reaction

Current total potential energy:           -839818.6432438627 [K]
	Current Host-Host energy:                     0.0000000000 [K]
	Current Host-Adsorbate energy:          -792641.7515344092 [K]
	Current Host-Cation energy:                   0.0000000000 [K]
	Current Adsorbate-Adsorbate energy:      -47176.8917094438 [K]
	Current Cation-Cation energy:                 0.0000000000 [K]
	Current Adsorbate-Cation energy:              0.0000000000 [K]



[Init] Current cycle: 3000 out of 100000
========================================================================================================

Net charge: 0 (F: 0, A: 0, C: 0)
Current Box:  35.62200   0.00000   0.00000 [A]
               0.00000  35.62200   0.00000 [A]
               0.00000   0.00000  35.62200 [A]
Box-lengths:  35.62200  35.62200  35.62200 Box-angles:   90.00000  90.00000  90.00000 [degrees]
Volume: 45201.71346 [A^3]

Loadings per component:
----------------------------------------------------------------------------------------------------------------------------------------------------
Component 0 (argon), current number of integer/fractional/reaction molecules: 293/0/0, density: 429.98881 [kg/m^3]
	absolute adsorption: 293.00000 [mol/uc],         6.3496 [mol/kg],            253.6533 [mg/g]
	                                               142.3195 [cm^3 STP/g],        241.2574 [cm^3 STP/cm^3]
	excess adsorption:   293.00000 [mol/uc],         6.3496 [mol/kg],            253.6533 [mg/g]
	                                               142.3195 [cm^3 STP/g],        241.2574 [cm^3 STP/cm^3]
----------------------------------------------------------------------------------------------------------------------------------------------------
Degrees of freedom: 879 0 879 0
Number of Framework-atoms:   2304
Number of Adsorbates:         293 (293 integer, 0 fractional, 0 reaction)
Number of Cations:              0 (0 integer, 0 fractional, 0 reaction

Current total potential energy:           -837221.1755015890 [K]
	Current Host-Host energy:                     0.0000000000 [K]
	Current Host-Adsorbate energy:          -792261.2765397284 [K]
	Current Host-Cation energy:                   0.0000000000 [K]
	Current Adsorbate-Adsorbate energy:      -44959.8989618607 [K]
	Current Cation-Cation energy:                 0.0000000000 [K]
	Current Adsorbate-Cation energy:              0.0000000000 [K]



[Init] Current cycle: 4000 out of 100000
========================================================================================================

Net charge: 0 (F: 0, A: 0, C: 0)
Current Box:  35.62200   0.00000   0.00000 [A]
               0.00000  35.62200   0.00000 [A]
               0.00000   0.00000  35.62200 [A]
Box-lengths:  35.62200  35.62200  35.62200 Box-angles:   90.00000  90.00000  90.00000 [degrees]
Volume: 45201.71346 [A^3]

Loadings per component:
----------------------------------------------------------------------------------------------------------------------------------------------------
Component 0 (argon), current number of integer/fractional/reaction molecules: 299/0/0, density: 438.79405 [kg/m^3]
	absolute adsorption: 299.00000 [mol/uc],         6.4796 [mol/kg],            258.8475 [mg/g]
	                                               145.2339 [cm^3 STP/g],        246.1978 [cm^3 STP/cm^3]
	excess adsorption:   299.00000 [mol/uc],         6.4796 [mol/kg],            258.8475 [mg/g]
	                                               145.2339 [cm^3 STP/g],        246.1978 [cm^3 STP/cm^3]
----------------------------------------------------------------------------------------------------------------------------------------------------
Degrees of freedom: 897 0 897 0
Number of Framework-atoms:   2304
Number of Adsorbates:         299 (299 integer, 0 fractional, 0 reaction)
Number of Cations:              0 (0 integer, 0 fractional, 0 reaction

Current total potential energy:           -855293.1674781593 [K]
	Current Host-Host energy:                     0.0000000000 [K]
	Current Host-Adsorbate energy:          -807969.5816509357 [K]
	Current Host-Cation energy:                   0.0000000000 [K]
	Current Adsorbate-Adsorbate energy:      -47323.5858272181 [K]
	Current Cation-Cation energy:                 0.0000000000 [K]
	Current Adsorbate-Cation energy:              0.0000000000 [K]



[Init] Current cycle: 5000 out of 100000
========================================================================================================

Net charge: 0 (F: 0, A: 0, C: 0)
Current Box:  35.62200   0.00000   0.00000 [A]
               0.00000  35.62200   0.00000 [A]
               0.00000   0.00000  35.62200 [A]
Box-lengths:  35.62200  35.62200  35.62200 Box-angles:   90.00000  90.00000  90.00000 [degrees]
Volume: 45201.71346 [A^3]

Loadings per component:
----------------------------------------------------------------------------------------------------------------------------------------------------
Component 0 (argon), current number of integer/fractional/reaction molecules: 298/0/0, density: 437.32651 [kg/m^3]
	absolute adsorption: 298.00000 [mol/uc],         6.4579 [mol/kg],            257.9818 [mg/g]
	                                               144.7481 [cm^3 STP/g],        245.3744 [cm^3 STP/cm^3]
	excess adsorption:   298.00000 [mol/uc],         6.4579 [mol/kg],            257.9818 [mg/g]
	                                               144.7481 [cm^3 STP/g],        245.3744 [cm^3 STP/cm^3]
----------------------------------------------------------------------------------------------------------------------------------------------------
Degrees of freedom: 894 0 894 0
Number of Framework-atoms:   2304
Number of Adsorbates:         298 (298 integer, 0 fractional, 0 reaction)
Number of Cations:              0 (0 integer, 0 fractional, 0 reaction

Current total potential energy:           -860170.1555258021 [K]
	Current Host-Host energy:                     0.0000000000 [K]
	Current Host-Adsorbate energy:          -809088.9335391688 [K]
	Current Host-Cation energy:                   0.0000000000 [K]
	Current Adsorbate-Adsorbate energy:      -51081.2219866149 [K]
	Current Cation-Cation energy:                 0.0000000000 [K]
	Current Adsorbate-Cation energy:              0.0000000000 [K]



[Init] Current cycle: 6000 out of 100000
========================================================================================================

Net charge: 0 (F: 0, A: 0, C: 0)
Current Box:  35.62200   0.00000   0.00000 [A]
               0.00000  35.62200   0.00000 [A]
               0.00000   0.00000  35.62200 [A]
Box-lengths:  35.62200  35.62200  35.62200 Box-angles:   90.00000  90.00000  90.00000 [degrees]
Volume: 45201.71346 [A^3]

Loadings per component:
----------------------------------------------------------------------------------------------------------------------------------------------------
Component 0 (argon), current number of integer/fractional/reaction molecules: 297/0/0, density: 435.85897 [kg/m^3]
	absolute adsorption: 297.00000 [mol/uc],         6.4363 [mol/kg],            257.1161 [mg/g]
	                                               144.2624 [cm^3 STP/g],        244.5510 [cm^3 STP/cm^3]
	excess adsorption:   297.00000 [mol/uc],         6.4363 [mol/kg],            257.1161 [mg/g]
	                                               144.2624 [cm^3 STP/g],        244.5510 [cm^3 STP/cm^3]
----------------------------------------------------------------------------------------------------------------------------------------------------
Degrees of freedom: 891 0 891 0
Number of Framework-atoms:   2304
Number of Adsorbates:         297 (297 integer, 0 fractional, 0 reaction)
Number of Cations:              0 (0 integer, 0 fractional, 0 reaction

Current total potential energy:           -858221.4614535735 [K]
	Current Host-Host energy:                     0.0000000000 [K]
	Current Host-Adsorbate energy:          -808219.6712226922 [K]
	Current Host-Cation energy:                   0.0000000000 [K]
	Current Adsorbate-Adsorbate energy:      -50001.7902308617 [K]
	Current Cation-Cation energy:                 0.0000000000 [K]
	Current Adsorbate-Cation energy:              0.0000000000 [K]



[Init] Current cycle: 7000 out of 100000
========================================================================================================

Net charge: 0 (F: 0, A: 0, C: 0)
Current Box:  35.62200   0.00000   0.00000 [A]
               0.00000  35.62200   0.00000 [A]
               0.00000   0.00000  35.62200 [A]
Box-lengths:  35.62200  35.62200  35.62200 Box-angles:   90.00000  90.00000  90.00000 [degrees]
Volume: 45201.71346 [A^3]

Loadings per component:
----------------------------------------------------------------------------------------------------------------------------------------------------
Component 0 (argon), current number of integer/fractional/reaction molecules: 296/0/0, density: 434.39143 [kg/m^3]
	absolute adsorption: 296.00000 [mol/uc],         6.4146 [mol/kg],            256.2504 [mg/g]
	                                               143.7767 [cm^3 STP/g],        243.7276 [cm^3 STP/cm^3]
	excess adsorption:   296.00000 [mol/uc],         6.4146 [mol/kg],            256.2504 [mg/g]
	                                               143.7767 [cm^3 STP/g],        243.7276 [cm^3 STP/cm^3]
----------------------------------------------------------------------------------------------------------------------------------------------------
Degrees of freedom: 888 0 888 0
Number of Framework-atoms:   2304
Number of Adsorbates:         296 (296 integer, 0 fractional, 0 reaction)
Number of Cations:              0 (0 integer, 0 fractional, 0 reaction

Current total potential energy:           -860381.8313299196 [K]
	Current Host-Host energy:                     0.0000000000 [K]
	Current Host-Adsorbate energy:          -810446.4937716946 [K]
	Current Host-Cation energy:                   0.0000000000 [K]
	Current Adsorbate-Adsorbate energy:      -49935.3375582002 [K]
	Current Cation-Cation energy:                 0.0000000000 [K]
	Current Adsorbate-Cation energy:              0.0000000000 [K]



[Init] Current cycle: 8000 out of 100000
========================================================================================================

Net charge: 0 (F: 0, A: 0, C: 0)
Current Box:  35.62200   0.00000   0.00000 [A]
               0.00000  35.62200   0.00000 [A]
               0.00000   0.00000  35.62200 [A]
Box-lengths:  35.62200  35.62200  35.62200 Box-angles:   90.00000  90.00000  90.00000 [degrees]
Volume: 45201.71346 [A^3]

Loadings per component:
----------------------------------------------------------------------------------------------------------------------------------------------------
Component 0 (argon), current number of integer/fractional/reaction molecules: 297/0/0, density: 435.85897 [kg/m^3]
	absolute adsorption: 297.00000 [mol/uc],         6.4363 [mol/kg],            257.1161 [mg/g]
	                                               144.2624 [cm^3 STP/g],        244.5510 [cm^3 STP/cm^3]
	excess adsorption:   297.00000 [mol/uc],         6.4363 [mol/kg],            257.1161 [mg/g]
	                                               144.2624 [cm^3 STP/g],        244.5510 [cm^3 STP/cm^3]
----------------------------------------------------------------------------------------------------------------------------------------------------
Degrees of freedom: 891 0 891 0
Number of Framework-atoms:   2304
Number of Adsorbates:         297 (297 integer, 0 fractional, 0 reaction)
Number of Cations:              0 (0 integer, 0 fractional, 0 reaction

Current total potential energy:           -861451.8074327420 [K]
	Current Host-Host energy:                     0.0000000000 [K]
	Current Host-Adsorbate energy:          -814152.4769125520 [K]
	Current Host-Cation energy:                   0.0000000000 [K]
	Current Adsorbate-Adsorbate energy:      -47299.3305201649 [K]
	Current Cation-Cation energy:                 0.0000000000 [K]
	Current Adsorbate-Cation energy:              0.0000000000 [K]



[Init] Current cycle: 9000 out of 100000
========================================================================================================

Net charge: 0 (F: 0, A: 0, C: 0)
Current Box:  35.62200   0.00000   0.00000 [A]
               0.00000  35.62200   0.00000 [A]
               0.00000   0.00000  35.62200 [A]
Box-lengths:  35.62200  35.62200  35.62200 Box-angles:   90.00000  90.00000  90.00000 [degrees]
Volume: 45201.71346 [A^3]

Loadings per component:
----------------------------------------------------------------------------------------------------------------------------------------------------
Component 0 (argon), current number of integer/fractional/reaction molecules: 297/0/0, density: 435.85897 [kg/m^3]
	absolute adsorption: 297.00000 [mol/uc],         6.4363 [mol/kg],            257.1161 [mg/g]
	                                               144.2624 [cm^3 STP/g],        244.5510 [cm^3 STP/cm^3]
	excess adsorption:   297.00000 [mol/uc],         6.4363 [mol/kg],            257.1161 [mg/g]
	                                               144.2624 [cm^3 STP/g],        244.5510 [cm^3 STP/cm^3]
----------------------------------------------------------------------------------------------------------------------------------------------------
Degrees of freedom: 891 0 891 0
Number of Framework-atoms:   2304
Number of Adsorbates:         297 (297 integer, 0 fractional, 0 reaction)
Number of Cations:              0 (0 integer, 0 fractional, 0 reaction

Current total potential energy:           -857892.1071865991 [K]
	Current Host-Host energy:                     0.0000000000 [K]
	Current Host-Adsorbate energy:          -806968.5672441467 [K]
	Current Host-Cation energy:                   0.0000000000 [K]
	Current Adsorbate-Adsorbate energy:      -50923.5399424284 [K]
	Current Cation-Cation energy:                 0.0000000000 [K]
	Current Adsorbate-Cation energy:              0.0000000000 [K]



[Init] Current cycle: 10000 out of 100000
========================================================================================================

Net charge: 0 (F: 0, A: 0, C: 0)
Current Box:  35.62200   0.00000   0.00000 [A]
               0.00000  35.62200   0.00000 [A]
               0.00000   0.00000  35.62200 [A]
Box-lengths:  35.62200  35.62200  35.62200 Box-angles:   90.00000  90.00000  90.00000 [degrees]
Volume: 45201.71346 [A^3]

Loadings per component:
----------------------------------------------------------------------------------------------------------------------------------------------------
Component 0 (argon), current number of integer/fractional/reaction molecules: 297/0/0, density: 435.85897 [kg/m^3]
	absolute adsorption: 297.00000 [mol/uc],         6.4363 [mol/kg],            257.1161 [mg/g]
	                                               144.2624 [cm^3 STP/g],        244.5510 [cm^3 STP/cm^3]
	excess adsorption:   297.00000 [mol/uc],         6.4363 [mol/kg],            257.1161 [mg/g]
	                                               144.2624 [cm^3 STP/g],        244.5510 [cm^3 STP/cm^3]
----------------------------------------------------------------------------------------------------------------------------------------------------
Degrees of freedom: 891 0 891 0
Number of Framework-atoms:   2304
Number of Adsorbates:         297 (297 integer, 0 fractional, 0 reaction)
Number of Cations:              0 (0 integer, 0 fractional, 0 reaction

Current total potential energy:           -857919.6394988506 [K]
	Current Host-Host energy:                     0.0000000000 [K]
	Current Host-Adsorbate energy:          -807406.0952038943 [K]
	Current Host-Cation energy:                   0.0000000000 [K]
	Current Adsorbate-Adsorbate energy:      -50513.5442949350 [K]
	Current Cation-Cation energy:                 0.0000000000 [K]
	Current Adsorbate-Cation energy:              0.0000000000 [K]



[Init] Current cycle: 11000 out of 100000
========================================================================================================

Net charge: 0 (F: 0, A: 0, C: 0)
Current Box:  35.62200   0.00000   0.00000 [A]
               0.00000  35.62200   0.00000 [A]
               0.00000   0.00000  35.62200 [A]
Box-lengths:  35.62200  35.62200  35.62200 Box-angles:   90.00000  90.00000  90.00000 [degrees]
Volume: 45201.71346 [A^3]

Loadings per component:
----------------------------------------------------------------------------------------------------------------------------------------------------
Component 0 (argon), current number of integer/fractional/reaction molecules: 297/0/0, density: 435.85897 [kg/m^3]
	absolute adsorption: 297.00000 [mol/uc],         6.4363 [mol/kg],            257.1161 [mg/g]
	                                               144.2624 [cm^3 STP/g],        244.5510 [cm^3 STP/cm^3]
	excess adsorption:   297.00000 [mol/uc],         6.4363 [mol/kg],            257.1161 [mg/g]
	                                               144.2624 [cm^3 STP/g],        244.5510 [cm^3 STP/cm^3]
----------------------------------------------------------------------------------------------------------------------------------------------------
Degrees of freedom: 891 0 891 0
Number of Framework-atoms:   2304
Number of Adsorbates:         297 (297 integer, 0 fractional, 0 reaction)
Number of Cations:              0 (0 integer, 0 fractional, 0 reaction

Current total potential energy:           -862934.8127284579 [K]
	Current Host-Host energy:                     0.0000000000 [K]
	Current Host-Adsorbate energy:          -814016.1007027671 [K]
	Current Host-Cation energy:                   0.0000000000 [K]
	Current Adsorbate-Adsorbate energy:      -48918.7120256871 [K]
	Current Cation-Cation energy:                 0.0000000000 [K]
	Current Adsorbate-Cation energy:              0.0000000000 [K]



[Init] Current cycle: 12000 out of 100000
========================================================================================================

Net charge: 0 (F: 0, A: 0, C: 0)
Current Box:  35.62200   0.00000   0.00000 [A]
               0.00000  35.62200   0.00000 [A]
               0.00000   0.00000  35.62200 [A]
Box-lengths:  35.62200  35.62200  35.62200 Box-angles:   90.00000  90.00000  90.00000 [degrees]
Volume: 45201.71346 [A^3]

Loadings per component:
----------------------------------------------------------------------------------------------------------------------------------------------------
Component 0 (argon), current number of integer/fractional/reaction molecules: 298/0/0, density: 437.32651 [kg/m^3]
	absolute adsorption: 298.00000 [mol/uc],         6.4579 [mol/kg],            257.9818 [mg/g]
	                                               144.7481 [cm^3 STP/g],        245.3744 [cm^3 STP/cm^3]
	excess adsorption:   298.00000 [mol/uc],         6.4579 [mol/kg],            257.9818 [mg/g]
	                                               144.7481 [cm^3 STP/g],        245.3744 [cm^3 STP/cm^3]
----------------------------------------------------------------------------------------------------------------------------------------------------
Degrees of freedom: 894 0 894 0
Number of Framework-atoms:   2304
Number of Adsorbates:         298 (298 integer, 0 fractional, 0 reaction)
Number of Cations:              0 (0 integer, 0 fractional, 0 reaction

Current total potential energy:           -860227.2212538271 [K]
	Current Host-Host energy:                     0.0000000000 [K]
	Current Host-Adsorbate energy:          -812366.0594423603 [K]
	Current Host-Cation energy:                   0.0000000000 [K]
	Current Adsorbate-Adsorbate energy:      -47861.1618114580 [K]
	Current Cation-Cation energy:                 0.0000000000 [K]
	Current Adsorbate-Cation energy:              0.0000000000 [K]



[Init] Current cycle: 13000 out of 100000
========================================================================================================

Net charge: 0 (F: 0, A: 0, C: 0)
Current Box:  35.62200   0.00000   0.00000 [A]
               0.00000  35.62200   0.00000 [A]
               0.00000   0.00000  35.62200 [A]
Box-lengths:  35.62200  35.62200  35.62200 Box-angles:   90.00000  90.00000  90.00000 [degrees]
Volume: 45201.71346 [A^3]

Loadings per component:
----------------------------------------------------------------------------------------------------------------------------------------------------
Component 0 (argon), current number of integer/fractional/reaction molecules: 298/0/0, density: 437.32651 [kg/m^3]
	absolute adsorption: 298.00000 [mol/uc],         6.4579 [mol/kg],            257.9818 [mg/g]
	                                               144.7481 [cm^3 STP/g],        245.3744 [cm^3 STP/cm^3]
	excess adsorption:   298.00000 [mol/uc],         6.4579 [mol/kg],            257.9818 [mg/g]
	                                               144.7481 [cm^3 STP/g],        245.3744 [cm^3 STP/cm^3]
----------------------------------------------------------------------------------------------------------------------------------------------------
Degrees of freedom: 894 0 894 0
Number of Framework-atoms:   2304
Number of Adsorbates:         298 (298 integer, 0 fractional, 0 reaction)
Number of Cations:              0 (0 integer, 0 fractional, 0 reaction

Current total potential energy:           -859971.4091450495 [K]
	Current Host-Host energy:                     0.0000000000 [K]
	Current Host-Adsorbate energy:          -813149.5905813244 [K]
	Current Host-Cation energy:                   0.0000000000 [K]
	Current Adsorbate-Adsorbate energy:      -46821.8185637013 [K]
	Current Cation-Cation energy:                 0.0000000000 [K]
	Current Adsorbate-Cation energy:              0.0000000000 [K]



[Init] Current cycle: 14000 out of 100000
========================================================================================================

Net charge: 0 (F: 0, A: 0, C: 0)
Current Box:  35.62200   0.00000   0.00000 [A]
               0.00000  35.62200   0.00000 [A]
               0.00000   0.00000  35.62200 [A]
Box-lengths:  35.62200  35.62200  35.62200 Box-angles:   90.00000  90.00000  90.00000 [degrees]
Volume: 45201.71346 [A^3]

Loadings per component:
----------------------------------------------------------------------------------------------------------------------------------------------------
Component 0 (argon), current number of integer/fractional/reaction molecules: 298/0/0, density: 437.32651 [kg/m^3]
	absolute adsorption: 298.00000 [mol/uc],         6.4579 [mol/kg],            257.9818 [mg/g]
	                                               144.7481 [cm^3 STP/g],        245.3744 [cm^3 STP/cm^3]
	excess adsorption:   298.00000 [mol/uc],         6.4579 [mol/kg],            257.9818 [mg/g]
	                                               144.7481 [cm^3 STP/g],        245.3744 [cm^3 STP/cm^3]
----------------------------------------------------------------------------------------------------------------------------------------------------
Degrees of freedom: 894 0 894 0
Number of Framework-atoms:   2304
Number of Adsorbates:         298 (298 integer, 0 fractional, 0 reaction)
Number of Cations:              0 (0 integer, 0 fractional, 0 reaction

Current total potential energy:           -859856.9115668883 [K]
	Current Host-Host energy:                     0.0000000000 [K]
	Current Host-Adsorbate energy:          -811646.8905481198 [K]
	Current Host-Cation energy:                   0.0000000000 [K]
	Current Adsorbate-Adsorbate energy:      -48210.0210187527 [K]
	Current Cation-Cation energy:                 0.0000000000 [K]
	Current Adsorbate-Cation energy:              0.0000000000 [K]



[Init] Current cycle: 15000 out of 100000
========================================================================================================

Net charge: 0 (F: 0, A: 0, C: 0)
Current Box:  35.62200   0.00000   0.00000 [A]
               0.00000  35.62200   0.00000 [A]
               0.00000   0.00000  35.62200 [A]
Box-lengths:  35.62200  35.62200  35.62200 Box-angles:   90.00000  90.00000  90.00000 [degrees]
Volume: 45201.71346 [A^3]

Loadings per component:
----------------------------------------------------------------------------------------------------------------------------------------------------
Component 0 (argon), current number of integer/fractional/reaction molecules: 298/0/0, density: 437.32651 [kg/m^3]
	absolute adsorption: 298.00000 [mol/uc],         6.4579 [mol/kg],            257.9818 [mg/g]
	                                               144.7481 [cm^3 STP/g],        245.3744 [cm^3 STP/cm^3]
	excess adsorption:   298.00000 [mol/uc],         6.4579 [mol/kg],            257.9818 [mg/g]
	                                               144.7481 [cm^3 STP/g],        245.3744 [cm^3 STP/cm^3]
----------------------------------------------------------------------------------------------------------------------------------------------------
Degrees of freedom: 894 0 894 0
Number of Framework-atoms:   2304
Number of Adsorbates:         298 (298 integer, 0 fractional, 0 reaction)
Number of Cations:              0 (0 integer, 0 fractional, 0 reaction

Current total potential energy:           -862926.9852934865 [K]
	Current Host-Host energy:                     0.0000000000 [K]
	Current Host-Adsorbate energy:          -811453.9602573136 [K]
	Current Host-Cation energy:                   0.0000000000 [K]
	Current Adsorbate-Adsorbate energy:      -51473.0250361558 [K]
	Current Cation-Cation energy:                 0.0000000000 [K]
	Current Adsorbate-Cation energy:              0.0000000000 [K]



[Init] Current cycle: 16000 out of 100000
========================================================================================================

Net charge: 0 (F: 0, A: 0, C: 0)
Current Box:  35.62200   0.00000   0.00000 [A]
               0.00000  35.62200   0.00000 [A]
               0.00000   0.00000  35.62200 [A]
Box-lengths:  35.62200  35.62200  35.62200 Box-angles:   90.00000  90.00000  90.00000 [degrees]
Volume: 45201.71346 [A^3]

Loadings per component:
----------------------------------------------------------------------------------------------------------------------------------------------------
Component 0 (argon), current number of integer/fractional/reaction molecules: 298/0/0, density: 437.32651 [kg/m^3]
	absolute adsorption: 298.00000 [mol/uc],         6.4579 [mol/kg],            257.9818 [mg/g]
	                                               144.7481 [cm^3 STP/g],        245.3744 [cm^3 STP/cm^3]
	excess adsorption:   298.00000 [mol/uc],         6.4579 [mol/kg],            257.9818 [mg/g]
	                                               144.7481 [cm^3 STP/g],        245.3744 [cm^3 STP/cm^3]
----------------------------------------------------------------------------------------------------------------------------------------------------
Degrees of freedom: 894 0 894 0
Number of Framework-atoms:   2304
Number of Adsorbates:         298 (298 integer, 0 fractional, 0 reaction)
Number of Cations:              0 (0 integer, 0 fractional, 0 reaction

Current total potential energy:           -857833.4838482674 [K]
	Current Host-Host energy:                     0.0000000000 [K]
	Current Host-Adsorbate energy:          -809450.2260496541 [K]
	Current Host-Cation energy:                   0.0000000000 [K]
	Current Adsorbate-Adsorbate energy:      -48383.2577986040 [K]
	Current Cation-Cation energy:                 0.0000000000 [K]
	Current Adsorbate-Cation energy:              0.0000000000 [K]



[Init] Current cycle: 17000 out of 100000
========================================================================================================

Net charge: 0 (F: 0, A: 0, C: 0)
Current Box:  35.62200   0.00000   0.00000 [A]
               0.00000  35.62200   0.00000 [A]
               0.00000   0.00000  35.62200 [A]
Box-lengths:  35.62200  35.62200  35.62200 Box-angles:   90.00000  90.00000  90.00000 [degrees]
Volume: 45201.71346 [A^3]

Loadings per component:
----------------------------------------------------------------------------------------------------------------------------------------------------
Component 0 (argon), current number of integer/fractional/reaction molecules: 298/0/0, density: 437.32651 [kg/m^3]
	absolute adsorption: 298.00000 [mol/uc],         6.4579 [mol/kg],            257.9818 [mg/g]
	                                               144.7481 [cm^3 STP/g],        245.3744 [cm^3 STP/cm^3]
	excess adsorption:   298.00000 [mol/uc],         6.4579 [mol/kg],            257.9818 [mg/g]
	                                               144.7481 [cm^3 STP/g],        245.3744 [cm^3 STP/cm^3]
----------------------------------------------------------------------------------------------------------------------------------------------------
Degrees of freedom: 894 0 894 0
Number of Framework-atoms:   2304
Number of Adsorbates:         298 (298 integer, 0 fractional, 0 reaction)
Number of Cations:              0 (0 integer, 0 fractional, 0 reaction

Current total potential energy:           -860920.0541649573 [K]
	Current Host-Host energy:                     0.0000000000 [K]
	Current Host-Adsorbate energy:          -811687.6219935684 [K]
	Current Host-Cation energy:                   0.0000000000 [K]
	Current Adsorbate-Adsorbate energy:      -49232.4321713689 [K]
	Current Cation-Cation energy:                 0.0000000000 [K]
	Current Adsorbate-Cation energy:              0.0000000000 [K]



[Init] Current cycle: 18000 out of 100000
========================================================================================================

Net charge: 0 (F: 0, A: 0, C: 0)
Current Box:  35.62200   0.00000   0.00000 [A]
               0.00000  35.62200   0.00000 [A]
               0.00000   0.00000  35.62200 [A]
Box-lengths:  35.62200  35.62200  35.62200 Box-angles:   90.00000  90.00000  90.00000 [degrees]
Volume: 45201.71346 [A^3]

Loadings per component:
----------------------------------------------------------------------------------------------------------------------------------------------------
Component 0 (argon), current number of integer/fractional/reaction molecules: 298/0/0, density: 437.32651 [kg/m^3]
	absolute adsorption: 298.00000 [mol/uc],         6.4579 [mol/kg],            257.9818 [mg/g]
	                                               144.7481 [cm^3 STP/g],        245.3744 [cm^3 STP/cm^3]
	excess adsorption:   298.00000 [mol/uc],         6.4579 [mol/kg],            257.9818 [mg/g]
	                                               144.7481 [cm^3 STP/g],        245.3744 [cm^3 STP/cm^3]
----------------------------------------------------------------------------------------------------------------------------------------------------
Degrees of freedom: 894 0 894 0
Number of Framework-atoms:   2304
Number of Adsorbates:         298 (298 integer, 0 fractional, 0 reaction)
Number of Cations:              0 (0 integer, 0 fractional, 0 reaction

Current total potential energy:           -860759.4376095112 [K]
	Current Host-Host energy:                     0.0000000000 [K]
	Current Host-Adsorbate energy:          -812074.5507911603 [K]
	Current Host-Cation energy:                   0.0000000000 [K]
	Current Adsorbate-Adsorbate energy:      -48684.8868183385 [K]
	Current Cation-Cation energy:                 0.0000000000 [K]
	Current Adsorbate-Cation energy:              0.0000000000 [K]



[Init] Current cycle: 19000 out of 100000
========================================================================================================

Net charge: 0 (F: 0, A: 0, C: 0)
Current Box:  35.62200   0.00000   0.00000 [A]
               0.00000  35.62200   0.00000 [A]
               0.00000   0.00000  35.62200 [A]
Box-lengths:  35.62200  35.62200  35.62200 Box-angles:   90.00000  90.00000  90.00000 [degrees]
Volume: 45201.71346 [A^3]

Loadings per component:
----------------------------------------------------------------------------------------------------------------------------------------------------
Component 0 (argon), current number of integer/fractional/reaction molecules: 298/0/0, density: 437.32651 [kg/m^3]
	absolute adsorption: 298.00000 [mol/uc],         6.4579 [mol/kg],            257.9818 [mg/g]
	                                               144.7481 [cm^3 STP/g],        245.3744 [cm^3 STP/cm^3]
	excess adsorption:   298.00000 [mol/uc],         6.4579 [mol/kg],            257.9818 [mg/g]
	                                               144.7481 [cm^3 STP/g],        245.3744 [cm^3 STP/cm^3]
----------------------------------------------------------------------------------------------------------------------------------------------------
Degrees of freedom: 894 0 894 0
Number of Framework-atoms:   2304
Number of Adsorbates:         298 (298 integer, 0 fractional, 0 reaction)
Number of Cations:              0 (0 integer, 0 fractional, 0 reaction

Current total potential energy:           -861659.7718321163 [K]
	Current Host-Host energy:                     0.0000000000 [K]
	Current Host-Adsorbate energy:          -811176.2149029642 [K]
	Current Host-Cation energy:                   0.0000000000 [K]
	Current Adsorbate-Adsorbate energy:      -50483.5569291404 [K]
	Current Cation-Cation energy:                 0.0000000000 [K]
	Current Adsorbate-Cation energy:              0.0000000000 [K]



[Init] Current cycle: 20000 out of 100000
========================================================================================================

Net charge: 0 (F: 0, A: 0, C: 0)
Current Box:  35.62200   0.00000   0.00000 [A]
               0.00000  35.62200   0.00000 [A]
               0.00000   0.00000  35.62200 [A]
Box-lengths:  35.62200  35.62200  35.62200 Box-angles:   90.00000  90.00000  90.00000 [degrees]
Volume: 45201.71346 [A^3]

Loadings per component:
----------------------------------------------------------------------------------------------------------------------------------------------------
Component 0 (argon), current number of integer/fractional/reaction molecules: 298/0/0, density: 437.32651 [kg/m^3]
	absolute adsorption: 298.00000 [mol/uc],         6.4579 [mol/kg],            257.9818 [mg/g]
	                                               144.7481 [cm^3 STP/g],        245.3744 [cm^3 STP/cm^3]
	excess adsorption:   298.00000 [mol/uc],         6.4579 [mol/kg],            257.9818 [mg/g]
	                                               144.7481 [cm^3 STP/g],        245.3744 [cm^3 STP/cm^3]
----------------------------------------------------------------------------------------------------------------------------------------------------
Degrees of freedom: 894 0 894 0
Number of Framework-atoms:   2304
Number of Adsorbates:         298 (298 integer, 0 fractional, 0 reaction)
Number of Cations:              0 (0 integer, 0 fractional, 0 reaction

Current total potential energy:           -864613.3102213216 [K]
	Current Host-Host energy:                     0.0000000000 [K]
	Current Host-Adsorbate energy:          -815442.8479375843 [K]
	Current Host-Cation energy:                   0.0000000000 [K]
	Current Adsorbate-Adsorbate energy:      -49170.4622837377 [K]
	Current Cation-Cation energy:                 0.0000000000 [K]
	Current Adsorbate-Cation energy:              0.0000000000 [K]



[Init] Current cycle: 21000 out of 100000
========================================================================================================

[...]
	Block[ 1]            0.00000 [K]
	Block[ 2]            0.00000 [K]
	Block[ 3]            0.00000 [K]
	Block[ 4]            0.00000 [K]
	------------------------------------------------------------------------------
	Average              0.00000 [K] +/-            0.00000 [K]

Average Cation Bend angle inversion energy:
===========================================
	Block[ 0]            0.00000 [K]
	Block[ 1]            0.00000 [K]
	Block[ 2]            0.00000 [K]
	Block[ 3]            0.00000 [K]
	Block[ 4]            0.00000 [K]
	------------------------------------------------------------------------------
	Average              0.00000 [K] +/-            0.00000 [K]

Average Cation Torsion energy:
==============================
	Block[ 0]            0.00000 [K]
	Block[ 1]            0.00000 [K]
	Block[ 2]            0.00000 [K]
	Block[ 3]            0.00000 [K]
	Block[ 4]            0.00000 [K]
	------------------------------------------------------------------------------
	Average              0.00000 [K] +/-            0.00000 [K]

Average Cation Improper Torsion energy:
=======================================
	Block[ 0]            0.00000 [K]
	Block[ 1]            0.00000 [K]
	Block[ 2]            0.00000 [K]
	Block[ 3]            0.00000 [K]
	Block[ 4]            0.00000 [K]
	------------------------------------------------------------------------------
	Average              0.00000 [K] +/-            0.00000 [K]

Average Cation Bond-Bond cross term energy:
=================================================
	Block[ 0]            0.00000 [K]
	Block[ 1]            0.00000 [K]
	Block[ 2]            0.00000 [K]
	Block[ 3]            0.00000 [K]
	Block[ 4]            0.00000 [K]
	------------------------------------------------------------------------------
	Average              0.00000 [K] +/-            0.00000 [K]

Average Cation Bend-Bend cross term energy:
===========================================
	Block[ 0]            0.00000 [K]
	Block[ 1]            0.00000 [K]
	Block[ 2]            0.00000 [K]
	Block[ 3]            0.00000 [K]
	Block[ 4]            0.00000 [K]
	------------------------------------------------------------------------------
	Average              0.00000 [K] +/-            0.00000 [K]

Average Cation Bond-Bend cross term energy:
==============================================
	Block[ 0]            0.00000 [K]
	Block[ 1]            0.00000 [K]
	Block[ 2]            0.00000 [K]
	Block[ 3]            0.00000 [K]
	Block[ 4]            0.00000 [K]
	------------------------------------------------------------------------------
	Average              0.00000 [K] +/-            0.00000 [K]

Average Cation Bond-Torsion cross term energy:
==============================================
	Block[ 0]            0.00000 [K]
	Block[ 1]            0.00000 [K]
	Block[ 2]            0.00000 [K]
	Block[ 3]            0.00000 [K]
	Block[ 4]            0.00000 [K]
	------------------------------------------------------------------------------
	Average              0.00000 [K] +/-            0.00000 [K]

Average Cation Bend-Torsion cross term energy:
==============================================
	Block[ 0]            0.00000 [K]
	Block[ 1]            0.00000 [K]
	Block[ 2]            0.00000 [K]
	Block[ 3]            0.00000 [K]
	Block[ 4]            0.00000 [K]
	------------------------------------------------------------------------------
	Average              0.00000 [K] +/-            0.00000 [K]

Average Cation Intra Van der Waals energy:
==========================================
	Block[ 0]            0.00000 [K]
	Block[ 1]            0.00000 [K]
	Block[ 2]            0.00000 [K]
	Block[ 3]            0.00000 [K]
	Block[ 4]            0.00000 [K]
	------------------------------------------------------------------------------
	Average              0.00000 [K] +/-            0.00000 [K]

Average Cation Intra charge-charge Coulomb energy:
====================================
	Block[ 0]            0.00000 [K]
	Block[ 1]            0.00000 [K]
	Block[ 2]            0.00000 [K]
	Block[ 3]            0.00000 [K]
	Block[ 4]            0.00000 [K]
	------------------------------------------------------------------------------
	Average              0.00000 [K] +/-            0.00000 [K]

Average Cation Intra charge-bonddipole Coulomb energy:
====================================
	Block[ 0]            0.00000 [K]
	Block[ 1]            0.00000 [K]
	Block[ 2]            0.00000 [K]
	Block[ 3]            0.00000 [K]
	Block[ 4]            0.00000 [K]
	------------------------------------------------------------------------------
	Average              0.00000 [K] +/-            0.00000 [K]

Average Cation Intra bonddipole-bonddipole Coulomb energy:
====================================
	Block[ 0]            0.00000 [K]
	Block[ 1]            0.00000 [K]
	Block[ 2]            0.00000 [K]
	Block[ 3]            0.00000 [K]
	Block[ 4]            0.00000 [K]
	------------------------------------------------------------------------------
	Average              0.00000 [K] +/-            0.00000 [K]

Average Host-Host energy:
=========================
	Block[ 0] 0.00000            Van der Waals: 0.00000            Coulomb: 0.00000            [K]
	Block[ 1] 0.00000            Van der Waals: 0.00000            Coulomb: 0.00000            [K]
	Block[ 2] 0.00000            Van der Waals: 0.00000            Coulomb: 0.00000            [K]
	Block[ 3] 0.00000            Van der Waals: 0.00000            Coulomb: 0.00000            [K]
	Block[ 4] 0.00000            Van der Waals: 0.00000            Coulomb: 0.00000            [K]
	------------------------------------------------------------------------------
	Average   0.00000            Van der Waals: 0.000000           Coulomb: 0.00000            [K]
	      +/- 0.00000                       +/- 0.000000                +/- 0.00000            [K]

Average Adsorbate-Adsorbate energy:
===================================
	Block[ 0] -48011.71293       Van der Waals: -48011.71293       Coulomb: 0.00000            [K]
	Block[ 1] -48411.14514       Van der Waals: -48411.14514       Coulomb: 0.00000            [K]
	Block[ 2] -48380.06791       Van der Waals: -48380.06791       Coulomb: 0.00000            [K]
	Block[ 3] -47376.71016       Van der Waals: -47376.71016       Coulomb: 0.00000            [K]
	Block[ 4] -47403.60628       Van der Waals: -47403.60628       Coulomb: 0.00000            [K]
	------------------------------------------------------------------------------
	Average   -47916.64848       Van der Waals: -47916.648485      Coulomb: 0.00000            [K]
	      +/- 904.68446                     +/- 904.684456              +/- 0.00000            [K]

Average Cation-Cation energy:
=============================
	Block[ 0] 0.00000            Van der Waals: 0.00000            Coulomb: 0.00000            [K]
	Block[ 1] 0.00000            Van der Waals: 0.00000            Coulomb: 0.00000            [K]
	Block[ 2] 0.00000            Van der Waals: 0.00000            Coulomb: 0.00000            [K]
	Block[ 3] 0.00000            Van der Waals: 0.00000            Coulomb: 0.00000            [K]
	Block[ 4] 0.00000            Van der Waals: 0.00000            Coulomb: 0.00000            [K]
	------------------------------------------------------------------------------
	Average   0.00000            Van der Waals: 0.000000           Coulomb: 0.00000            [K]
	      +/- 0.00000                       +/- 0.000000                +/- 0.00000            [K]

Average Host-Adsorbate energy:
==============================
	Block[ 0] -819086.10689      Van der Waals: -819086.10689      Coulomb: 0.00000            [K]
	Block[ 1] -816333.90584      Van der Waals: -816333.90584      Coulomb: 0.00000            [K]
	Block[ 2] -817545.01611      Van der Waals: -817545.01611      Coulomb: 0.00000            [K]
	Block[ 3] -820304.01924      Van der Waals: -820304.01924      Coulomb: 0.00000            [K]
	Block[ 4] -821665.43553      Van der Waals: -821665.43553      Coulomb: 0.00000            [K]
	------------------------------------------------------------------------------
	Average   -818986.89672      Van der Waals: -818986.896722     Coulomb: 0.00000            [K]
	      +/- 3798.58973                    +/- 3798.589727             +/- 0.00000            [K]

Average Host-Cation energy:
===========================
	Block[ 0] 0.00000            Van der Waals: 0.00000            Coulomb: 0.00000            [K]
	Block[ 1] 0.00000            Van der Waals: 0.00000            Coulomb: 0.00000            [K]
	Block[ 2] 0.00000            Van der Waals: 0.00000            Coulomb: 0.00000            [K]
	Block[ 3] 0.00000            Van der Waals: 0.00000            Coulomb: 0.00000            [K]
	Block[ 4] 0.00000            Van der Waals: 0.00000            Coulomb: 0.00000            [K]
	------------------------------------------------------------------------------
	Average   0.00000            Van der Waals: 0.000000           Coulomb: 0.00000            [K]
	      +/- 0.00000                       +/- 0.000000                +/- 0.00000            [K]

Average Adsorbate-Cation energy:
================================
	Block[ 0] 0.00000            Van der Waals: 0.00000            Coulomb: 0.00000            [K]
	Block[ 1] 0.00000            Van der Waals: 0.00000            Coulomb: 0.00000            [K]
	Block[ 2] 0.00000            Van der Waals: 0.00000            Coulomb: 0.00000            [K]
	Block[ 3] 0.00000            Van der Waals: 0.00000            Coulomb: 0.00000            [K]
	Block[ 4] 0.00000            Van der Waals: 0.00000            Coulomb: 0.00000            [K]
	------------------------------------------------------------------------------
	Average   0.00000            Van der Waals: 0.000000           Coulomb: 0.00000            [K]
	      +/- 0.00000                       +/- 0.000000                +/- 0.00000            [K]

Host polarization energy:
=======================
	Block[ 0]            0.00000 [K]
	Block[ 1]            0.00000 [K]
	Block[ 2]            0.00000 [K]
	Block[ 3]            0.00000 [K]
	Block[ 4]            0.00000 [K]
	------------------------------------------------------------------------------
	Average              0.00000 [K] +/-            0.00000 [K]

Adsorbate polarization energy:
=======================
	Block[ 0]            0.00000 [K]
	Block[ 1]            0.00000 [K]
	Block[ 2]            0.00000 [K]
	Block[ 3]            0.00000 [K]
	Block[ 4]            0.00000 [K]
	------------------------------------------------------------------------------
	Average              0.00000 [K] +/-            0.00000 [K]

Cation polarization energy:
=======================
	Block[ 0]            0.00000 [K]
	Block[ 1]            0.00000 [K]
	Block[ 2]            0.00000 [K]
	Block[ 3]            0.00000 [K]
	Block[ 4]            0.00000 [K]
	------------------------------------------------------------------------------
	Average              0.00000 [K] +/-            0.00000 [K]

Host back-polarization energy:
=======================
	Block[ 0]            0.00000 [K]
	Block[ 1]            0.00000 [K]
	Block[ 2]            0.00000 [K]
	Block[ 3]            0.00000 [K]
	Block[ 4]            0.00000 [K]
	------------------------------------------------------------------------------
	Average              0.00000 [K] +/-            0.00000 [K]

Adsorbate back-polarization energy:
=======================
	Block[ 0]            0.00000 [K]
	Block[ 1]            0.00000 [K]
	Block[ 2]            0.00000 [K]
	Block[ 3]            0.00000 [K]
	Block[ 4]            0.00000 [K]
	------------------------------------------------------------------------------
	Average              0.00000 [K] +/-            0.00000 [K]

Cation back-polarization energy:
=======================
	Block[ 0]            0.00000 [K]
	Block[ 1]            0.00000 [K]
	Block[ 2]            0.00000 [K]
	Block[ 3]            0.00000 [K]
	Block[ 4]            0.00000 [K]
	------------------------------------------------------------------------------
	Average              0.00000 [K] +/-            0.00000 [K]

Tail-correction energy:
=======================
	Block[ 0]            0.00000 [K]
	Block[ 1]            0.00000 [K]
	Block[ 2]            0.00000 [K]
	Block[ 3]            0.00000 [K]
	Block[ 4]            0.00000 [K]
	------------------------------------------------------------------------------
	Average              0.00000 [K] +/-            0.00000 [K]

Distance-constraints energy:
=======================
	Block[ 0]            0.00000 [K]
	Block[ 1]            0.00000 [K]
	Block[ 2]            0.00000 [K]
	Block[ 3]            0.00000 [K]
	Block[ 4]            0.00000 [K]
	------------------------------------------------------------------------------
	Average              0.00000 [K] +/-            0.00000 [K]

Angle-constraints energy:
=======================
	Block[ 0]            0.00000 [K]
	Block[ 1]            0.00000 [K]
	Block[ 2]            0.00000 [K]
	Block[ 3]            0.00000 [K]
	Block[ 4]            0.00000 [K]
	------------------------------------------------------------------------------
	Average              0.00000 [K] +/-            0.00000 [K]

Dihedral-constraints energy:
=======================
	Block[ 0]            0.00000 [K]
	Block[ 1]            0.00000 [K]
	Block[ 2]            0.00000 [K]
	Block[ 3]            0.00000 [K]
	Block[ 4]            0.00000 [K]
	------------------------------------------------------------------------------
	Average              0.00000 [K] +/-            0.00000 [K]

Inversion-bend constraints energy:
=======================
	Block[ 0]            0.00000 [K]
	Block[ 1]            0.00000 [K]
	Block[ 2]            0.00000 [K]
	Block[ 3]            0.00000 [K]
	Block[ 4]            0.00000 [K]
	------------------------------------------------------------------------------
	Average              0.00000 [K] +/-            0.00000 [K]

Out-of-plane-distance constraints energy:
=======================
	Block[ 0]            0.00000 [K]
	Block[ 1]            0.00000 [K]
	Block[ 2]            0.00000 [K]
	Block[ 3]            0.00000 [K]
	Block[ 4]            0.00000 [K]
	------------------------------------------------------------------------------
	Average              0.00000 [K] +/-            0.00000 [K]

Exclusion-constraints energy:
=======================
	Block[ 0]            0.00000 [K]
	Block[ 1]            0.00000 [K]
	Block[ 2]            0.00000 [K]
	Block[ 3]            0.00000 [K]
	Block[ 4]            0.00000 [K]
	------------------------------------------------------------------------------
	Average              0.00000 [K] +/-            0.00000 [K]

Total energy:
=============
	Block[ 0]      -867097.81981 [K]
	Block[ 1]      -864745.05098 [K]
	Block[ 2]      -865925.08402 [K]
	Block[ 3]      -867680.72941 [K]
	Block[ 4]      -869069.04181 [K]
	------------------------------------------------------------------------------
	Average        -866903.54521 [K] +/-         2959.40765 [K]

Number of molecules:
====================

Component 0 [argon]
-------------------------------------------------------------
	Block[ 0] 301.71140          [-]
	Block[ 1] 300.00000          [-]
	Block[ 2] 300.96330          [-]
	Block[ 3] 302.34920          [-]
	Block[ 4] 302.97485          [-]
	------------------------------------------------------------------------------
	Average                                    301.5997500000 +/-       2.0840939902 [-]
	Average loading absolute [molecules/unit cell]      301.5997500000 +/-       2.0840939902 [-]
	Average loading absolute [mol/kg framework]          6.5359504532 +/-       0.0451642784 [-]
	Average loading absolute [milligram/gram framework]        261.0981487026 +/-       1.8042225915 [-]
	Average loading absolute [cm^3 (STP)/gr framework]        146.4966349445 +/-       1.0123110396 [-]
	Average loading absolute [cm^3 (STP)/cm^3 framework]        248.3384610815 +/-       1.7160514698 [-]

	Block[ 0] 301.71140          [-]
	Block[ 1] 300.00000          [-]
	Block[ 2] 300.96330          [-]
	Block[ 3] 302.34920          [-]
	Block[ 4] 302.97485          [-]
	------------------------------------------------------------------------------
	Average                                    301.5997500000 +/-       2.0840939902 [-]
	Average loading excess [molecules/unit cell]      301.5997500000 +/-       2.0840939902 [-]
	Average loading excess [mol/kg framework]          6.5359504532 +/-       0.0451642784 [-]
	Average loading excess [milligram/gram framework]        261.0981487026 +/-       1.8042225915 [-]
	Average loading excess [cm^3 (STP)/gr framework]        146.4966349445 +/-       1.0123110396 [-]
	Average loading excess [cm^3 (STP)/cm^3 framework]        248.3384610815 +/-       1.7160514698 [-]


Average Widom Rosenbluth factor:
================================
	Block[ 0] 0 [-]
	Block[ 1] 0 [-]
	Block[ 2] 0 [-]
	Block[ 3] 0 [-]
	Block[ 4] 0 [-]
	------------------------------------------------------------------------------
	[argon] Average Widom Rosenbluth-weight:   0 +/- 0.000000 [-]

Average Widom chemical potential:
=================================
	Block[ 0] 0 [-]
	Block[ 1] 0 [-]
	Block[ 2] 0 [-]
	Block[ 3] 0 [-]
	Block[ 4] 0 [-]
	------------------------------------------------------------------------------
	[argon] Average chemical potential:   0 +/- 0.000000 [K]

Average Widom Ideal-gas contribution:
=====================================
	Block[ 0] 0 [-]
	Block[ 1] 0 [-]
	Block[ 2] 0 [-]
	Block[ 3] 0 [-]
	Block[ 4] 0 [-]
	------------------------------------------------------------------------------
	[argon] Average Widom Ideal-gas chemical potential:   0 +/- 0.000000 [-]

Average Widom excess contribution:
==================================
	Block[ 0] 0 [-]
	Block[ 1] 0 [-]
	Block[ 2] 0 [-]
	Block[ 3] 0 [-]
	Block[ 4] 0 [-]
	------------------------------------------------------------------------------
	[argon] Average Widom excess chemical potential:   0 +/- 0.000000 [-]

Average Gibbs Widom Rosenbluth factor:
======================================
	Block[ 0] 0 [-]
	Block[ 1] 0 [-]
	Block[ 2] 0 [-]
	Block[ 3] 0 [-]
	Block[ 4] 0 [-]
	------------------------------------------------------------------------------
	[argon] Average Gibbs Widom Rosenbluth-weight:   0 +/- 0.000000 [-]

Average Gibbs Widom chemical potential:
=======================================
	Block[ 0] 0 [-]
	Block[ 1] 0 [-]
	Block[ 2] 0 [-]
	Block[ 3] 0 [-]
	Block[ 4] 0 [-]
	------------------------------------------------------------------------------
	[argon] Average Gibbs chemical potential:   0 +/- 0.000000 [K]

Average Gibbs Widom Ideal-gas contribution:
===========================================
	Block[ 0] 0 [-]
	Block[ 1] 0 [-]
	Block[ 2] 0 [-]
	Block[ 3] 0 [-]
	Block[ 4] 0 [-]
	------------------------------------------------------------------------------
	[argon] Average Gibbs Ideal-gas chemical potential:   0 +/- 0.000000 [-]

Average Gibbs Widom excess contribution:
===========================================
	Block[ 0] 0 [-]
	Block[ 1] 0 [-]
	Block[ 2] 0 [-]
	Block[ 3] 0 [-]
	Block[ 4] 0 [-]
	------------------------------------------------------------------------------
	[argon] Average Gibbs excess chemical potential:   0 +/- 0.000000 [-]

Average Henry coefficient:
==========================
	Block[ 0] 0 [mol/kg/Pa]
	Block[ 1] 0 [mol/kg/Pa]
	Block[ 2] 0 [mol/kg/Pa]
	Block[ 3] 0 [mol/kg/Pa]
	Block[ 4] 0 [mol/kg/Pa]
	------------------------------------------------------------------------------
	[argon] Average Henry coefficient:  0 +/- 0 [mol/kg/Pa]

Average adsorption energy <U_gh>_1-<U_h>_0 obtained from Widom-insertion:
(Note: the total heat of adsorption is dH=<U_gh>_1-<U_h>_0 - <U_g> - RT)
=========================================================================

Simulation finished,  0 warnings


Mon Jun  7 11:29:03 2021
Simulation finished on Monday, June 07.
The end time was 11:29 AM.

