Compiler and run-time data
===========================================================================
RASPA 2.0.37
Compiled as a 64-bits application
Compiler: gcc Intel(R) C++ gcc 4.8.5 mode
Compile Date = May 12 2020, Compile Time = 18:40:55

Thu Jun 10 05:57:03 2021
Simulation started on Thursday, June 10.
The start time was 05:57 AM.

Hostname:    The start time was 05:57 AM.
OS type:     The start time was 05:57 AM.
OS release:  The start time was 05:57 AM.
OS version:  The start time was 05:57 AM.

Simulation
===========================================================================
Dimensions: 3
Random number seed: 1623301018
RASPA directory set to: /mnt/iusers01/ceas01/m86397ah/Installed_software/RASPA
String appended to output-files: 
Number of cycles: 50000
Number of initializing cycles: 50000
Number of equilibration cycles: 0
Print every: 500
Triclinic boundary condition applied
Timestep: 0.000500
	Degrees of freedom:                        0
	Translational Degrees of freedom:          0
	Rotational Degrees of freedom:             0
	Degrees of freedom Framework:              0


Mutual consistent basic set of units:
======================================
Unit of temperature: Kelvin
Unit of length:      1e-10 [m]
Unit of time:        1e-12 [s]
Unit of mass:        1.66054e-27 [kg]
Unit of charge:      1.60218e-19 [C/particle]

Derived units and their conversion factors:
===========================================
Unit of energy:              1.66054e-23 [J]
Unit of force:               1.66054e-13 [N]
Unit of pressure:            1.66054e+07 [Pa]
Unit of velocity:            100 [m/s]
Unit of acceleration:        1e-08 [m^2/s]
Unit of diffusion:           1e-08 [m^2/s]
Unit of dipole moment:       1.60218e-29 [C.m]
Unit of electric potential:  0.000103643 [V]
Unit of electric field:      1.03643e+06 [V]
Unit of polarizability:      1.54587e-35 [-]
Unit of Coulomb potential:   167101.0800066561  [K]
Unit of dielectric constant: 0.0000154587       [s^2 C^2/(kg m^3)]
Unit of wave vectors:        5.3088374589       [cm^1]
Boltzmann constant:          0.8314464919       [-]

Internal conversion factors:
===========================================
Energy to Kelvin:                                    1.2027242847
FH correction factor                                 2.0211930949
Heat capacity conversion factor:                    10.0000088723
From Debye to internal units:                        4.8032067991
Isothermal compressibility conversion factor:        0.0000000602

Energy conversion factors:
===========================================
From mdyne/A to kcal/mol/A^2:           143.933
From mdyne/A to kj/mol/A^2:             602.214
From mdyne/A to K/A^2:                  72429.7
From mdyne A/rad^2 to kcal/mol/deg^2:   0.0438444


Properties computed
===========================================================================
Movies: yes
	Movie snapshots are appended to file every 1000 cycles
Radial Distribution Function: no
Number of molecules GCMC histogram: no
Histogram of the molecule positions: no
Free energy profiles: no
Pore Size Distribution Function: no
End-to-end distance: no
Histogram of the energy of the system: no
Compute thermodynamic factors: no
Framework spacing histograms: no
Residence times histograms: no
Distance histograms: no
Bend Angle histograms: no
Dihedral angle histograms: no
Angle between planes histograms: no
Molecule properties: no
Infra-red spectra: no
Mean-squared displacement using modified order-N algorithm: no
Velocity-autocorrelation function modified order-N algorithm: no
Rotational velocity-autocorrelation function modified order-N algorithm: no
Molecular orientation-autocorrelation function modified order-N algorithm: no
Bond orientation-autocorrelation function modified order-N algorithm: no
Mean-squared displacement (conventional algorithm): no
Velocity-autocorrelation function (conventional algorithm): no
3D density grid for adsorbates: no
Compute cation an/or adsorption sites: no
dcTST snapshots: no
Compute pressure and stress: no


VTK
===========================================================================
VTK fractional-range position framework atoms: [-0.001000,1.001000] [-0.001000,1.001000] [-0.001000,1.001000]
VTK fractional-range position framework bonds: [-0.151000,1.151000] [-0.151000,1.151000] [-0.151000,1.151000]
VTK fractional-range com-position adsorbate molecules: [-0.101000,1.101000] [-0.101000,1.101000] [-0.101000,1.101000]
VTK fractional-range com-position cation molecules: [-0.101000,1.101000] [-0.101000,1.101000] [-0.101000,1.101000]
	3D free energy grid made for the full simulation-cell


Thermo/Baro-stat NHC parameters
===========================================================================
External temperature: 87 [K]
Beta: 0.0138244 [energy unit]
External Pressure: 101325 [Pa]


Thermostat chain-length: 3
Timescale parameter for thermostat: 0.150000 [ps]
Barostat chain-length:   3
Timescale parameter for barostat:   0.150000 [ps]

Number of Yoshida-Suzuki decomposition steps: 5
Number of respa steps: 5


Method and settings for electrostatics
===============================================================================
Dielectric constant of the medium : 1.000000
Charge from charge-equilibration: no
Ewald summation is used (exact solution of a periodic system)
Relative precision                : 1e-06
Alpha convergence parameter       : 0.265058
kvec (x,y,z)                      : 14 14 14


CFC-RXMC parameters
===========================================================================
Number of reactions: 0


Rattle parameters
===========================================================================
Distance constraint type: r^2-r^2_0
Bend angle constraint type: theta-theta_0
Dihedral angle constraint type: phi-phi_0
Inversion-bend angle constraint type: chi-chi_0
Out-of-plane distance constraint type: r-r_0


Spectra parameters
===========================================================================
Compute normal modes: no


Minimization parameters
===========================================================================
Generalized coordinates are: Cartesian center-of-mass, elements of the orientational matrix p1,p2,p3 and strain
Potential derivatives are evaluated: analytically
Translation of the system is removed from the generalized Hessian: no
Rotation of the system is removed from the generalized Hessian: no
Maximum step-length: 0.3
Convergence factor: 1
Maximum number of minimization steps: 10000
Use gradients in the line-minimizations: yes
RMS gradient tolerance: 1e-06
Maximum gradient tolerance: 1e-06

Distance constraints: 0
Angle constraints: 0
Dihedral constraints: 0

Improper dihedral constraints: 0

Inversion-bend constraints: 0

Out-of-plane constraints: 0

Harmonic distance constraints: 0
Harmonic angle constraints: 0
Harmonic dihedral constraints: 0

Dihedral mid-point measurements: 0

All framework atoms are fixed

Fixed adsorbate atoms:  
Fixed adsorbate groups (center-of-mass):  
Fixed adsorbate groups (orientation):  

Fixed cation atoms:  
Fixed cation groups (center-of-mass):  
Fixed cation groups (orientation):  


dcTST parameters
===========================================================================
Free energy profiles computed: no
Free energy profiles written every 5000 cycles
Free energy mapping: mapped to a,b,c-coordinates
BarrierPosition:       0.0000000000       0.0000000000       0.0000000000
BarrierNormal:         0.0000000000       0.0000000000       0.0000000000
Start with a molecule on top of the barrier: no
Maximum distance to barrier (e.g. distance to minumum free energy):       0.0000000000 [A]
Maximum trajectory time:      10.0000000000 [ps]
Each configuration is used with 5 different initial velocities


Cbmc parameters
===========================================================================
Biasing method: using only the VDW part
Number of trial positions:                                       10
Number of trial positions (reinsertion):                         10
Number of trial positions (partial reinsertion):                 10
Number of trial positions (identity-change):                     10
Number of trial positions (Gibbs particle transfer):             10
Number of trial positions (insertion/deletion):                  10
Number of trial positions (Widom insertion):                     10
Number of trial positions coupled Torsion-selection:             100
Number of trial positions first bead:                            10
Number of trial positions first bead (reinsertion):              10
Number of trial positions first bead (partial reinsertion):      10
Number of trial positions first bead (identity-change):          10
Number of trial positions first bead (Gibbs particle transfer):  10
Number of trial positions first bead (insertion/deletion):       10
Number of trial positions first bead (Widom insertion):          10
Number of trial moves per open bead:                             150
Target acceptance ratio small-mc scheme:                         0.400000
Energy overlap criteria:                                         1e+07
Minimal Rosenbluth factor:                                       1e-150


Pseudo atoms: 7
===========================================================================
Pseudo Atom[   0] Name UNIT     Oxidation:          Element: H    pdb-name: H    Scat. Types:   1   1 Mass=1.000000000  B-factor:0.000   
                 Charge=1.000000000          Polarization=0.000000000  [A^3] (considered a charged atom and no polarization)  Interactions: yes
                 Anisotropic factor:    0.000 [-] (Absolute), Radius:    1.000 [A], Framework-atom:  no
Pseudo Atom[   1] Name DUMMY    Oxidation: +0       Element: H    pdb-name: H    Scat. Types:   1   1 Mass=1.000000000  B-factor:1.000   
                 Charge=0.000000000          Polarization=0.000000000  [A^3] (considered a chargeless atom and no polarization)  Interactions:  no
                 Anisotropic factor:    0.000 [-] (Absolute), Radius:    1.000 [A], Framework-atom:  no
Pseudo Atom[   2] Name He       Oxidation: +0       Element: He   pdb-name: He   Scat. Types:   3   2 Mass=4.002602000  B-factor:1.000   
                 Charge=0.000000000          Polarization=0.000000000  [A^3] (considered a chargeless atom and no polarization)  Interactions: yes
                 Anisotropic factor:    0.000 [-] (Absolute), Radius:    1.000 [A], Framework-atom:  no
Pseudo Atom[   3] Name Ar       Oxidation: +0       Element: Ar   pdb-name: Ar   Scat. Types:  19  18 Mass=39.948000000 B-factor:1.000   
                 Charge=0.000000000          Polarization=0.000000000  [A^3] (considered a chargeless atom and no polarization)  Interactions: yes
                 Anisotropic factor:    0.000 [-] (Absolute), Radius:    1.000 [A], Framework-atom:  no
Pseudo Atom[   4] Name T        Oxidation: +0       Element: Si   pdb-name: Si   Scat. Types:  15  14 Mass=28.085500000 B-factor:1.000   
                 Charge=0.000000000          Polarization=0.000000000  [A^3] (considered a chargeless atom and no polarization)  Interactions: yes
                 Anisotropic factor:    0.000 [-] (Absolute), Radius:    1.180 [A], Framework-atom: yes (charge from pseudo-atoms file)
Pseudo Atom[   5] Name Al       Oxidation: +0       Element: Al   pdb-name: Al   Scat. Types:  14  13 Mass=26.981539000 B-factor:1.000   
                 Charge=0.000000000          Polarization=0.000000000  [A^3] (considered a chargeless atom and no polarization)  Interactions: yes
                 Anisotropic factor:    0.000 [-] (Absolute), Radius:    1.180 [A], Framework-atom:  no
Pseudo Atom[   6] Name O        Oxidation: +0       Element: O    pdb-name: O    Scat. Types:   9   8 Mass=15.999400000 B-factor:1.000   
                 Charge=0.000000000          Polarization=0.000000000  [A^3] (considered a chargeless atom and no polarization)  Interactions: yes
                 Anisotropic factor:    0.000 [-] (Absolute), Radius:    0.500 [A], Framework-atom: yes (charge from pseudo-atoms file)


Forcefield: local
===========================================================================
Minimal distance: 1
CutOff VDW : 12.800000 (163.840000)
CutOff VDW switching on: 11.520000 (132.710400)
CutOff charge-charge : 12.000000 (144.000000)
CutOff charge-charge switching on: 7.800000 (60.840000)
CutOff charge-bonddipole : 12.000000 (144.000000)
CutOff charge-bondipole switching on: 8.400000 (70.560000)
CutOff bonddipole-bonddipole : 12.000000 (144.000000)
CutOff bonddipole-bondipole switching on: 9.000000 (81.000000)
Polarization is neglected
All potentials are unshifted !!!!!!

General mixing rule: Lorentz-Berthelot mixing rules are used FIRST for cross terms
0 cross terms are overwritten using the individual mixing rules from the file 'force_field_mixing_rules.def'
and then 0 terms are overwritten using the specific interactions from the file 'force_field.def'

The force field and all the interactions:
     He -      He [LENNARD_JONES] p_0/k_B:  10.22000 [K], p_1: 2.58000 [A], shift/k_B:   0.00000000 [K], tailcorrection: no
     He -      Ar [LENNARD_JONES] p_0/k_B:  34.99080 [K], p_1: 2.99000 [A], shift/k_B:   0.00000000 [K], tailcorrection: no
     He -       T [LENNARD_JONES] p_0/k_B:  45.45298 [K], p_1: 3.20300 [A], shift/k_B:   0.00000000 [K], tailcorrection: no
     He -      Al [LENNARD_JONES] p_0/k_B:  50.94376 [K], p_1: 3.29400 [A], shift/k_B:   0.00000000 [K], tailcorrection: no
     He -       O [LENNARD_JONES] p_0/k_B:  17.56827 [K], p_1: 2.84900 [A], shift/k_B:   0.00000000 [K], tailcorrection: no
     Ar -      Ar [LENNARD_JONES] p_0/k_B: 119.80000 [K], p_1: 3.40000 [A], shift/k_B:   0.00000000 [K], tailcorrection: no
     Ar -       T [LENNARD_JONES] p_0/k_B: 155.61995 [K], p_1: 3.61300 [A], shift/k_B:   0.00000000 [K], tailcorrection: no
     Ar -      Al [LENNARD_JONES] p_0/k_B: 174.41907 [K], p_1: 3.70400 [A], shift/k_B:   0.00000000 [K], tailcorrection: no
     Ar -       O [LENNARD_JONES] p_0/k_B:  60.14948 [K], p_1: 3.25900 [A], shift/k_B:   0.00000000 [K], tailcorrection: no
      T -       T [LENNARD_JONES] p_0/k_B: 202.15000 [K], p_1: 3.82600 [A], shift/k_B:   0.00000000 [K], tailcorrection: no
      T -      Al [LENNARD_JONES] p_0/k_B: 226.57001 [K], p_1: 3.91700 [A], shift/k_B:   0.00000000 [K], tailcorrection: no
      T -       O [LENNARD_JONES] p_0/k_B:  78.13405 [K], p_1: 3.47200 [A], shift/k_B:   0.00000000 [K], tailcorrection: no
     Al -      Al [LENNARD_JONES] p_0/k_B: 253.94000 [K], p_1: 4.00800 [A], shift/k_B:   0.00000000 [K], tailcorrection: no
     Al -       O [LENNARD_JONES] p_0/k_B:  87.57276 [K], p_1: 3.56300 [A], shift/k_B:   0.00000000 [K], tailcorrection: no
      O -       O [LENNARD_JONES] p_0/k_B:  30.20000 [K], p_1: 3.11800 [A], shift/k_B:   0.00000000 [K], tailcorrection: no


MoleculeDefinitions:
===========================================================================
Component 0 [argon] (Adsorbate molecule)

	MoleculeDefinitions: argon
	Component contains no atoms with charge
	Component contains no atoms with point dipoles (polarization)
	Component has a net charge of 0.000000

	Ideal chain Rosenbluth weight: 1
	Ideal chain total energy: 0.000000

	Critical temparure [K]: 154.580000
	Critical pressure [Pa]: 5043000.000000
	Acentric factor [-]: 0.000000

	RXMC partition factor ln(q/V) [ln(A^(-3))]:       0.0000000000

	Liquid=stable, Vapour=metastable

	MolFraction:           1.0000000000 [-]
	Compressibility:       0.0034503778 [-]

	Density of the bulk fluid phase:    1621.7781374247 [kg/m^3]

	Binary mixture EOS parameters:  (0): 0.000000

	Amount of excess molecules:       0.0000000000 [-]

	Conversion factor molecules/unit cell -> mol/kg:       0.0693470119 [-]
	Conversion factor molecules/unit cell -> mg/g:       2.7702744311 [-]
	Conversion factor molecules/unit cell -> cm^3 STP/gr:       1.5543422427 [-]
	Conversion factor molecules/unit cell -> cm^3 STP/cm^3:       2.4203801183 [-]
	Conversion factor mol/kg -> cm^3 STP/gr:      22.4139757476 [-]
	Conversion factor mol/kg -> cm^3 STP/cm^3:      34.9024428348 [-]

	Partial pressure:    101325.00000000000000 [Pa]
	                        759.93750000000000 [Torr]
	                          1.01325000000000 [bar]
	                          1.00000000000000 [atm]

	Fugacity coefficient:       1.0000000000 [-]

	Partial fugacity:    101325.00000000000000 [Pa]
	                        759.93750000000000 [Torr]
	                          1.01325000000000 [bar]
	                          1.00000000000000 [atm]

	Molecule contains 1 number of atoms
		atom:    0  is of type:    3 [        Ar] (group: 0)

	Molecule contains 0 chirality centers

	Molecule contains 1 number of groups

		group: 0 containing: 1 elements
		-------------------------------------------------
		the group is modelled as flexible, i.e. no constraints
		Mass: 39.948000 [a.u.]
		Mass: 0.539225 [kg/m^3]

		Rotational Degrees of freedom: 0
		Diagonalized inertia vector:       0.0000000000
		                                   0.0000000000
		                                   0.0000000000
		element: 0 atom: 0 [        Ar] Charge:  0.000000 Anisotropy: 0.000000 Connectivity: 0 ()

		Dipole:           0.0000000000 [D]
		Quadrupole:       0.0000000000       0.0000000000       0.0000000000 [D Angstrom]
		Quadrupole tensor [D Angstrom]
				       0.0000000000       0.0000000000       0.0000000000
				       0.0000000000       0.0000000000       0.0000000000
				       0.0000000000       0.0000000000       0.0000000000

	Starting bead for growth               : 0

	Degrees of freedom                     : 0
	Translational degrees of freedom       : 0
	Rotational degrees of freedom          : 0
	Vibrational degrees of freedom         : 0
	Constraint degrees of freedom          : 0

	Number of atoms                        : 1

	Number of constraint bonds             : 0
	Number of constraint bends             : 0
	Number of constraint inversion bends   : 0
	Number of constraint torsions          : 0
	Number of constraint improper torsions : 0
	Number of constraint improper torsions : 0

	Number of bonds                        : 0
	Number of Urey-Bradleys                : 0
	Number of bends                        : 0
	Number of inversion bends              : 0
	Number of torsions                     : 0
	Number of improper torsions            : 0
	Number of improper torsions            : 0

	Number of bond/bond cross terms        : 0
	Number of bond/bend cross terms        : 0
	Number of bend/bend cross terms        : 0
	Number of stretch/torsion cross terms  : 0
	Number of bend/torsion cross terms     : 0

	Number of charges                      : 0
	Number of bond-dipoles                 : 0

	Number of intra Van der Waals                             : 0
	Number of intra charge-charge Coulomb                     : 0
	Number of intra charge-bonddipole Coulomb                 : 0
	Number of intra bonddipole-bonddipole Coulomb             : 0

	Number of excluded intra charge-charge Coulomb                     : 0
	Number of excluded intra charge-bonddipole Coulomb                 : 0
	Number of excluded intra bonddipole-bonddipole Coulomb             : 0

	Number of cbmc-config moves                               : 0

	Particle Moves:             
		ProbabilityTranslationMove:                  20.000000
			TranslationDirection:      XYZ
		Percentage of random translation moves:            0.000000
		Percentage of rotation moves:                      20.000000
		Percentage of random rotation moves:               0.000000
		Percentage of partial reinsertion moves:           0.000000
		Percentage of reinsertion moves:                   20.000000
		Percentage of reinsertion-in-place moves:          0.000000
		Percentage of reinsertion-in-plane moves:          0.000000
		Percentage of identity-change moves:               0.000000
		Percentage of swap (insert/delete) moves:          40.000000
		Percentage of CF swap lambda moves:                0.000000
		Percentage of CB/CFMC swap lambda moves:           0.000000
		Percentage of Widom insertion moves:               0.000000
		Percentage of CF-Widom insertion moves:            0.000000
		Percentage of Gibbs Widom insertion moves:         0.000000
		Percentage of surface-area moves:                  0.000000
		Percentage of Gibbs particle-transfer moves:       0.000000
		Percentage of Gibbs identity-change moves:         0.000000
		Percentage of CF Gibbs lambda-transfer moves:      0.000000
		Percentage of CB/CFMC Gibbs lambda-transfer moves: 0.000000
		Percentage of exchange frac./int. particle moves:  0.000000
		Percentage of fractional mol. to other box moves:  0.000000
		Percentage of lambda-change moves:                 0.000000
		Percentage of fractional to integer moves:         0.000000

	System Moves:
		Percentage of parallel-tempering moves:            0.000000
		Percentage of hyper-parallel-tempering moves:      0.000000
		Percentage of parallel-mol-fraction moves:         0.000000
			   Component A: 0 B: 1
		Percentage of chiral inversion moves:              0.000000
		Percentage of Hybrid-NVE moves:                    0.000000
		Percentage of Hybrid-NPH moves:                    0.000000
		Percentage of Hybrid-NPHPR moves:                  0.000000
		Percentage of volume-change moves:                 0.000000
		Percentage of box-shape-change moves:              0.000000
		Percentage of Gibbs volume-change moves:           0.000000
		Percentage of framework-change moves:              0.000000
		Percentage of framework-shift moves:               0.000000
		Percentage of reactive MC moves:                   0.000000

	Moves are restricted: No
	No biased sampling used for this component


	number of identity-config changes: 1
	--------------------------------------------
	nr fixed 1: 0 

	Number of pockets blocked in a unitcell: 0
		Pockets are NOT blocked for this component



Framework Status
===========================================================================
Lowenstein's rule obeyed by framework
	Framework is modelled as: rigid

	Number of charges:                               0
	Number of bonddipoles:                           0


System Properties
===========================================================================
Unit cell size: 24.867270 24.867270 24.867270
Cell angles (radians)  alpha: 1.570796 beta: 1.570796 gamma: 1.570796
Cell angles (degrees)  alpha: 90.000000 beta: 90.000000 gamma: 90.000000
Number of unitcells [a]: 2
Number of unitcells [b]: 2
Number of unitcells [c]: 2

TRICLINIC Boundary conditions: alpha!=90 or beta!=90 or gamma!=90

Cartesian axis A is collinear with crystallographic axis a
Cartesian axis B is collinear with (axb)xA
Cartesian axis C is collinear with (axb)

lengths of cell vectors:
 49.73454  49.73454  49.73454
cosines of cell angles:
  0.00000   0.00000   0.00000
perpendicular cell widths:
 49.73454  49.73454  49.73454
volume of the cell: 123019.601645036193 (A^3)

Orthogonalization matrix Box
Transforms fractional coordinates abc into orthonormal Cartesian coordinates xyz
Deorthogonalization matrix InverseBox
Transforms orthonormal Cartesian coordinates xyz into fractional coordinates xyz

Box[0]:
	   49.734540000000     0.000000000000     0.000000000000
	    0.000000000000    49.734540000000     0.000000000000
	    0.000000000000     0.000000000000    49.734540000000

Inverse box[0]:
	    0.020106750761    -0.000000000000    -0.000000000000
	    0.000000000000     0.020106750761    -0.000000000000
	    0.000000000000     0.000000000000     0.020106750761


Unitcell box[0]:
	   24.867270000000     0.000000000000     0.000000000000
	    0.000000000000    24.867270000000     0.000000000000
	    0.000000000000     0.000000000000    24.867270000000

Unitcell inverse box[0]:
	    0.040213501522    -0.000000000000    -0.000000000000
	    0.000000000000     0.040213501522    -0.000000000000
	    0.000000000000     0.000000000000     0.040213501522

lengths of cell vectors (inverse box):
  0.02011   0.02011   0.02011
cosines of cell angles (inverse box):
 -0.00000  -0.00000  -0.00000
perpendicular cell widths (inverse):
  0.02011   0.02011   0.02011
volume of the cell: 123019.601645036193 (A^3)

No replicas are used
Framework is simulated as 'rigid'
Number of framework atoms: 5760
Number of framework atoms in the unit cell: 720
Framework Mass: 115361.856000003798 [g/mol]
Framework Density:  1557.173222092883 [kg/m^3]    0.6421893118968 [cm^3/g]
Helium void fraction:    0.00000000
Available pore volume:    0.00000000 [A^3]    0.00000000 [cm^3/g]
Conversion factor from molecule/unit cell -> kmol/m^3: 0.0134982, kmol/m^3 accesible pore volume: inf

Number Of Frameworks (per system): 1
----------------------------------------------------------------------
Framework name: zeolite
Space group: 229
	Identifier: 529
	short international Hermann-Mauguin symbol: I m -3 m
	long international Hermann-Mauguin symbol: I 4/m -3 2/m
	Hall symbol: -I 4 2 3
	Number of lattice translations: 2 [ (0,0,0) (0.5,0.5,0.5) ]
	acentric/centric: acentric
	chiral: yes
	enantiomorphic: no
	number of operators: 96
		'x,y,z'
		'-x,-y,z'
		'-x,y,-z'
		'x,-y,-z'
		'z,x,y'
		'z,-x,-y'
		'-z,-x,y'
		'-z,x,-y'
		'y,z,x'
		'-y,z,-x'
		'y,-z,-x'
		'-y,-z,x'
		'y,x,-z'
		'-y,-x,-z'
		'y,-x,z'
		'-y,x,z'
		'x,z,-y'
		'-x,z,y'
		'-x,-z,-y'
		'x,-z,y'
		'z,y,-x'
		'z,-y,x'
		'-z,y,x'
		'-z,-y,-x'
		'-x,-y,-z'
		'x,y,-z'
		'x,-y,z'
		'-x,y,z'
		'-z,-x,-y'
		'-z,x,y'
		'z,x,-y'
		'z,-x,y'
		'-y,-z,-x'
		'y,-z,x'
		'-y,z,x'
		'y,z,-x'
		'-y,-x,z'
		'y,x,z'
		'-y,x,-z'
		'y,-x,-z'
		'-x,-z,y'
		'x,-z,-y'
		'x,z,y'
		'-x,z,-y'
		'-z,-y,x'
		'-z,y,-x'
		'z,-y,-x'
		'z,y,x'
		'x+1/2,y+1/2,z+1/2'
		'-x+1/2,-y+1/2,z+1/2'
		'-x+1/2,y+1/2,-z+1/2'
		'x+1/2,-y+1/2,-z+1/2'
		'z+1/2,x+1/2,y+1/2'
		'z+1/2,-x+1/2,-y+1/2'
		'-z+1/2,-x+1/2,y+1/2'
		'-z+1/2,x+1/2,-y+1/2'
		'y+1/2,z+1/2,x+1/2'
		'-y+1/2,z+1/2,-x+1/2'
		'y+1/2,-z+1/2,-x+1/2'
		'-y+1/2,-z+1/2,x+1/2'
		'y+1/2,x+1/2,-z+1/2'
		'-y+1/2,-x+1/2,-z+1/2'
		'y+1/2,-x+1/2,z+1/2'
		'-y+1/2,x+1/2,z+1/2'
		'x+1/2,z+1/2,-y+1/2'
		'-x+1/2,z+1/2,y+1/2'
		'-x+1/2,-z+1/2,-y+1/2'
		'x+1/2,-z+1/2,y+1/2'
		'z+1/2,y+1/2,-x+1/2'
		'z+1/2,-y+1/2,x+1/2'
		'-z+1/2,y+1/2,x+1/2'
		'-z+1/2,-y+1/2,-x+1/2'
		'-x+1/2,-y+1/2,-z+1/2'
		'x+1/2,y+1/2,-z+1/2'
		'x+1/2,-y+1/2,z+1/2'
		'-x+1/2,y+1/2,z+1/2'
		'-z+1/2,-x+1/2,-y+1/2'
		'-z+1/2,x+1/2,y+1/2'
		'z+1/2,x+1/2,-y+1/2'
		'z+1/2,-x+1/2,y+1/2'
		'-y+1/2,-z+1/2,-x+1/2'
		'y+1/2,-z+1/2,x+1/2'
		'-y+1/2,z+1/2,x+1/2'
		'y+1/2,z+1/2,-x+1/2'
		'-y+1/2,-x+1/2,z+1/2'
		'y+1/2,x+1/2,z+1/2'
		'-y+1/2,x+1/2,-z+1/2'
		'y+1/2,-x+1/2,-z+1/2'
		'-x+1/2,-z+1/2,y+1/2'
		'x+1/2,-z+1/2,-y+1/2'
		'x+1/2,z+1/2,y+1/2'
		'-x+1/2,z+1/2,-y+1/2'
		'-z+1/2,-y+1/2,x+1/2'
		'-z+1/2,y+1/2,-x+1/2'
		'z+1/2,-y+1/2,-x+1/2'
		'z+1/2,y+1/2,x+1/2'
Framework is simulated as 'rigid'
Shift: 0.000000 0.000000 0.000000
Number of framework atoms: 5760
Number of asymmetric atoms: 11
Number of free framework atoms: 0
Number of fixed framework atoms: 5760
Number of framework atoms in the unit cell: 720
Framework Mass: 115361.856000003798 [g/mol]
Framework Density:  1557.173222092883 [kg/m^3]
Framework has net charge: 0.000000
         largest charge : 0.000000
         smallest charge: 0.000000

Using FULL Host-guest interaction calculation (for testing purposes)

Current Atom Status
===========================================================================
Number of framework atoms        : 5760
Number of cations molecules      : 0
Number of adsorbate molecules    : 0
Component    0 :    0 molecules
Pseudo Atoms    0 [    UNIT]:    0 atoms
Pseudo Atoms    1 [   DUMMY]:    0 atoms
Pseudo Atoms    2 [      He]:    0 atoms
Pseudo Atoms    3 [      Ar]:    0 atoms
Pseudo Atoms    4 [       T]: 1920 atoms
Pseudo Atoms    5 [      Al]:    0 atoms
Pseudo Atoms    6 [       O]: 3840 atoms


Current (initial full energy) Energy Status
===========================================================================

Internal energy:
Host stretch energy:                                            0.00000000
Host UreyBradley energy:                                        0.00000000
Host bend energy:                                               0.00000000
Host inversion-bend energy:                                     0.00000000
Host torsion energy:                                            0.00000000
Host improper torsion energy:                                   0.00000000
Host out-of-plane energy:                                       0.00000000
Host stretch/stretch energy:                                    0.00000000
Host bend/bend energy:                                          0.00000000
Host stretch/bend energy:                                       0.00000000
Host stretch/torsion energy:                                    0.00000000
Host bend/torsion energy:                                       0.00000000

Adsorbate stretch energy:                                       0.00000000
Adsorbate UreyBradley energy:                                   0.00000000
Adsorbate bend energy:                                          0.00000000
Adsorbate inversion-bend energy:                                0.00000000
Adsorbate torsion energy:                                       0.00000000
Adsorbate improper torsion energy:                              0.00000000
Adsorbate out-of-plane energy:                                  0.00000000
Adsorbate stretch/stretch energy:                               0.00000000
Adsorbate bend/bend energy:                                     0.00000000
Adsorbate stretch/bend energy:                                  0.00000000
Adsorbate stretch/torsion energy:                               0.00000000
Adsorbate bend/torsion energy:                                  0.00000000
Adsorbate intra VDW energy:                                     0.00000000
Adsorbate intra charge-charge Coulomb energy:                   0.00000000
Adsorbate intra charge-bonddipole Coulomb energy:               0.00000000
Adsorbate intra bonddipole-bonddipole Coulomb energy:           0.00000000

Cation stretch energy:                                          0.00000000
Cation UreyBradley energy:                                      0.00000000
Cation bend energy:                                             0.00000000
Cation inversion-bend energy:                                   0.00000000
Cation torsion energy:                                          0.00000000
Cation improper torsion energy:                                 0.00000000
Cation out-of-plane energy:                                     0.00000000
Cation stretch/stretch energy:                                  0.00000000
Cation bend/bend energy:                                        0.00000000
Cation stretch/bend energy:                                     0.00000000
Cation stretch/torsion energy:                                  0.00000000
Cation bend/torsion energy:                                     0.00000000
Cation intra VDW energy:                                        0.00000000
Cation intra charge-charge Coulomb energy:                      0.00000000
Cation intra charge-bonddipole Coulomb energy:                  0.00000000
Cation intra bonddipole-bonddipole Coulomb energy:              0.00000000

Host/Host energy:                                             0.00000000
	Host/Host VDW energy:                                         0.00000000
	Host/Host Coulomb energy:                                     0.00000000
	Host/Host charge-charge Real energy:                          0.00000000
	Host/Host charge-charge Fourier energy:                       0.00000000
	Host/Host charge-bonddipole Real energy:                      0.00000000
	Host/Host charge-bonddipole Fourier energy:                   0.00000000
	Host/Host bondipole-bonddipole Real energy:                   0.00000000
	Host/Host bondipole-bonddipole Fourier energy:                0.00000000

Host/Adsorbate energy:                                        0.00000000
	Host/Adsorbate VDW energy:                                    0.00000000
	Host/Adsorbate Coulomb energy:                                0.00000000
	Host/Adsorbate charge-charge Real energy:                     0.00000000
	Host/Adsorbate charge-charge Fourier energy:                  0.00000000
	Host/Adsorbate charge-bonddipole Real energy:                 0.00000000
	Host/Adsorbate charge-bonddipole Fourier energy:              0.00000000
	Host/Adsorbate bondipole-bonddipole Real energy:              0.00000000
	Host/Adsorbate bondipole-bonddipole Fourier energy:           0.00000000

Host/Cation energy:                                           0.00000000
	Host/Cation VDW energy:                                       0.00000000
	Host/Cation Coulomb energy:                                   0.00000000
	Host/Cation charge-charge Real energy:                        0.00000000
	Host/Cation charge-charge Fourier energy:                     0.00000000
	Host/Cation charge-bonddipole Real energy:                    0.00000000
	Host/Cation charge-bonddipole Fourier energy:                 0.00000000
	Host/Cation bondipole-bonddipole Real energy:                 0.00000000
	Host/Cation bondipole-bonddipole Fourier energy:              0.00000000

Adsorbate/Adsorbate energy:                                        0.00000000
	Adsorbate/Adsorbate VDW energy:                                    0.00000000
	Adsorbate/Adsorbate Coulomb energy:                                0.00000000
	Adsorbate/Adsorbate charge-charge Real energy:                     0.00000000
	Adsorbate/Adsorbate charge-charge Fourier energy:                  0.00000000
	Adsorbate/Adsorbate charge-bonddipole Real energy:                 0.00000000
	Adsorbate/Adsorbate charge-bonddipole Fourier energy:              0.00000000
	Adsorbate/Adsorbate bondipole-bonddipole Real energy:              0.00000000
	Adsorbate/Adsorbate bondipole-bonddipole Fourier energy:           0.00000000

Adsorbate/Cation energy:                                           0.00000000
	Adsorbate/Cation VDW energy:                                       0.00000000
	Adsorbate/Cation Coulomb energy:                                   0.00000000
	Adsorbate/Cation charge-charge Real energy:                        0.00000000
	Adsorbate/Cation charge-charge Fourier energy:                     0.00000000
	Adsorbate/Cation charge-bonddipole Real energy:                    0.00000000
	Adsorbate/Cation charge-bonddipole Fourier energy:                 0.00000000
	Adsorbate/Cation bondipole-bonddipole Real energy:                 0.00000000
	Adsorbate/Cation bondipole-bonddipole Fourier energy:              0.00000000

Cation/Cation energy:                                           0.00000000
	Cation/Cation VDW energy:                                       0.00000000
	Cation/Cation Coulomb energy:                                   0.00000000
	Cation/Cation charge-charge Real energy:                        0.00000000
	Cation/Cation charge-charge Fourier energy:                     0.00000000
	Cation/Cation charge-bonddipole Real energy:                    0.00000000
	Cation/Cation charge-bonddipole Fourier energy:                 0.00000000
	Cation/Cation bondipole-bonddipole Real energy:                 0.00000000
	Cation/Cation bondipole-bonddipole Fourier energy:              0.00000000

Polarization energy:
	Host polarization energy:                                     0.00000000
	Adsorbate polarization energy:                                0.00000000
	Cation polarization energy:                                   0.00000000
	Host back-polarization energy:                                     0.00000000
	Adsorbate back-polarization energy:                                0.00000000
	Cation back-polarization energy:                                   0.00000000

Tail-correction energy:                                       0.00000000

Distance constraints energy:                                  0.00000000
Angle constraints energy:                                     0.00000000
Dihedral constraints energy:                                  0.00000000
Inversion-bend constraints energy:                            0.00000000
Out-of-plane distance constraints energy:                     0.00000000
Exclusion constraints energy:                                 0.00000000

===================================================================
Total energy:     0.000000000000
	Total Van der Waals: 0.000000
	Total Coulomb: 0.000000

	Total Polarization: 0.000000







+++++++++++++++++++++++++++++++++++++++++++++++++++++++++++++++++++++++++
Starting simulation
+++++++++++++++++++++++++++++++++++++++++++++++++++++++++++++++++++++++++

[Init] Current cycle: 0 out of 50000
========================================================================================================

Net charge: 0 (F: 0, A: 0, C: 0)
Current Box:  49.73454   0.00000   0.00000 [A]
               0.00000  49.73454   0.00000 [A]
               0.00000   0.00000  49.73454 [A]
Box-lengths:  49.73454  49.73454  49.73454 Box-angles:   90.00000  90.00000  90.00000 [degrees]
Volume: 123019.60165 [A^3]

Loadings per component:
----------------------------------------------------------------------------------------------------------------------------------------------------
Component 0 (argon), current number of integer/fractional/reaction molecules: 0/0/0, density:   0.00000 [kg/m^3]
	absolute adsorption:   0.00000 [mol/uc],         0.0000 [mol/kg],              0.0000 [mg/g]
	                                                 0.0000 [cm^3 STP/g],          0.0000 [cm^3 STP/cm^3]
	excess adsorption:     0.00000 [mol/uc],         0.0000 [mol/kg],              0.0000 [mg/g]
	                                                 0.0000 [cm^3 STP/g],          0.0000 [cm^3 STP/cm^3]
----------------------------------------------------------------------------------------------------------------------------------------------------
Degrees of freedom: 0 0 0 0
Number of Framework-atoms:   5760
Number of Adsorbates:           0 (0 integer, 0 fractional, 0 reaction)
Number of Cations:              0 (0 integer, 0 fractional, 0 reaction

Current total potential energy:                 0.0000000000 [K]
	Current Host-Host energy:                     0.0000000000 [K]
	Current Host-Adsorbate energy:                0.0000000000 [K]
	Current Host-Cation energy:                   0.0000000000 [K]
	Current Adsorbate-Adsorbate energy:           0.0000000000 [K]
	Current Cation-Cation energy:                 0.0000000000 [K]
	Current Adsorbate-Cation energy:              0.0000000000 [K]



[Init] Current cycle: 500 out of 50000
========================================================================================================

Net charge: 0 (F: 0, A: 0, C: 0)
Current Box:  49.73454   0.00000   0.00000 [A]
               0.00000  49.73454   0.00000 [A]
               0.00000   0.00000  49.73454 [A]
Box-lengths:  49.73454  49.73454  49.73454 Box-angles:   90.00000  90.00000  90.00000 [degrees]
Volume: 123019.60165 [A^3]

Loadings per component:
----------------------------------------------------------------------------------------------------------------------------------------------------
Component 0 (argon), current number of integer/fractional/reaction molecules: 1139/0/0, density: 614.17742 [kg/m^3]
	absolute adsorption: 142.37500 [mol/uc],         9.8733 [mol/kg],            394.4178 [mg/g]
	                                               221.2995 [cm^3 STP/g],        344.6016 [cm^3 STP/cm^3]
	excess adsorption:   142.37500 [mol/uc],         9.8733 [mol/kg],            394.4178 [mg/g]
	                                               221.2995 [cm^3 STP/g],        344.6016 [cm^3 STP/cm^3]
----------------------------------------------------------------------------------------------------------------------------------------------------
Degrees of freedom: 3417 0 3417 0
Number of Framework-atoms:   5760
Number of Adsorbates:        1139 (1139 integer, 0 fractional, 0 reaction)
Number of Cations:              0 (0 integer, 0 fractional, 0 reaction

Current total potential energy:          -3307933.1157941152 [K]
	Current Host-Host energy:                     0.0000000000 [K]
	Current Host-Adsorbate energy:         -3054171.1224071397 [K]
	Current Host-Cation energy:                   0.0000000000 [K]
	Current Adsorbate-Adsorbate energy:     -253761.9933869414 [K]
	Current Cation-Cation energy:                 0.0000000000 [K]
	Current Adsorbate-Cation energy:              0.0000000000 [K]



[Init] Current cycle: 1000 out of 50000
========================================================================================================

Net charge: 0 (F: 0, A: 0, C: 0)
Current Box:  49.73454   0.00000   0.00000 [A]
               0.00000  49.73454   0.00000 [A]
               0.00000   0.00000  49.73454 [A]
Box-lengths:  49.73454  49.73454  49.73454 Box-angles:   90.00000  90.00000  90.00000 [degrees]
Volume: 123019.60165 [A^3]

Loadings per component:
----------------------------------------------------------------------------------------------------------------------------------------------------
Component 0 (argon), current number of integer/fractional/reaction molecules: 1213/0/0, density: 654.08007 [kg/m^3]
	absolute adsorption: 151.62500 [mol/uc],        10.5147 [mol/kg],            420.0429 [mg/g]
	                                               235.6771 [cm^3 STP/g],        366.9901 [cm^3 STP/cm^3]
	excess adsorption:   151.62500 [mol/uc],        10.5147 [mol/kg],            420.0429 [mg/g]
	                                               235.6771 [cm^3 STP/g],        366.9901 [cm^3 STP/cm^3]
----------------------------------------------------------------------------------------------------------------------------------------------------
Degrees of freedom: 3639 0 3639 0
Number of Framework-atoms:   5760
Number of Adsorbates:        1213 (1213 integer, 0 fractional, 0 reaction)
Number of Cations:              0 (0 integer, 0 fractional, 0 reaction

Current total potential energy:          -3530390.6394829988 [K]
	Current Host-Host energy:                     0.0000000000 [K]
	Current Host-Adsorbate energy:         -3247404.0475005959 [K]
	Current Host-Cation energy:                   0.0000000000 [K]
	Current Adsorbate-Adsorbate energy:     -282986.5919823325 [K]
	Current Cation-Cation energy:                 0.0000000000 [K]
	Current Adsorbate-Cation energy:              0.0000000000 [K]



[Init] Current cycle: 1500 out of 50000
========================================================================================================

Net charge: 0 (F: 0, A: 0, C: 0)
Current Box:  49.73454   0.00000   0.00000 [A]
               0.00000  49.73454   0.00000 [A]
               0.00000   0.00000  49.73454 [A]
Box-lengths:  49.73454  49.73454  49.73454 Box-angles:   90.00000  90.00000  90.00000 [degrees]
Volume: 123019.60165 [A^3]

Loadings per component:
----------------------------------------------------------------------------------------------------------------------------------------------------
Component 0 (argon), current number of integer/fractional/reaction molecules: 1252/0/0, density: 675.10985 [kg/m^3]
	absolute adsorption: 156.50000 [mol/uc],        10.8528 [mol/kg],            433.5479 [mg/g]
	                                               243.2546 [cm^3 STP/g],        378.7895 [cm^3 STP/cm^3]
	excess adsorption:   156.50000 [mol/uc],        10.8528 [mol/kg],            433.5479 [mg/g]
	                                               243.2546 [cm^3 STP/g],        378.7895 [cm^3 STP/cm^3]
----------------------------------------------------------------------------------------------------------------------------------------------------
Degrees of freedom: 3756 0 3756 0
Number of Framework-atoms:   5760
Number of Adsorbates:        1252 (1252 integer, 0 fractional, 0 reaction)
Number of Cations:              0 (0 integer, 0 fractional, 0 reaction

Current total potential energy:          -3626286.1406047633 [K]
	Current Host-Host energy:                     0.0000000000 [K]
	Current Host-Adsorbate energy:         -3345153.4702782659 [K]
	Current Host-Cation energy:                   0.0000000000 [K]
	Current Adsorbate-Adsorbate energy:     -281132.6703265109 [K]
	Current Cation-Cation energy:                 0.0000000000 [K]
	Current Adsorbate-Cation energy:              0.0000000000 [K]



[Init] Current cycle: 2000 out of 50000
========================================================================================================

Net charge: 0 (F: 0, A: 0, C: 0)
Current Box:  49.73454   0.00000   0.00000 [A]
               0.00000  49.73454   0.00000 [A]
               0.00000   0.00000  49.73454 [A]
Box-lengths:  49.73454  49.73454  49.73454 Box-angles:   90.00000  90.00000  90.00000 [degrees]
Volume: 123019.60165 [A^3]

Loadings per component:
----------------------------------------------------------------------------------------------------------------------------------------------------
Component 0 (argon), current number of integer/fractional/reaction molecules: 1265/0/0, density: 682.11978 [kg/m^3]
	absolute adsorption: 158.12500 [mol/uc],        10.9655 [mol/kg],            438.0496 [mg/g]
	                                               245.7804 [cm^3 STP/g],        382.7226 [cm^3 STP/cm^3]
	excess adsorption:   158.12500 [mol/uc],        10.9655 [mol/kg],            438.0496 [mg/g]
	                                               245.7804 [cm^3 STP/g],        382.7226 [cm^3 STP/cm^3]
----------------------------------------------------------------------------------------------------------------------------------------------------
Degrees of freedom: 3795 0 3795 0
Number of Framework-atoms:   5760
Number of Adsorbates:        1265 (1265 integer, 0 fractional, 0 reaction)
Number of Cations:              0 (0 integer, 0 fractional, 0 reaction

Current total potential energy:          -3680550.7956269179 [K]
	Current Host-Host energy:                     0.0000000000 [K]
	Current Host-Adsorbate energy:         -3385941.8797685532 [K]
	Current Host-Cation energy:                   0.0000000000 [K]
	Current Adsorbate-Adsorbate energy:     -294608.9158583593 [K]
	Current Cation-Cation energy:                 0.0000000000 [K]
	Current Adsorbate-Cation energy:              0.0000000000 [K]



[Init] Current cycle: 2500 out of 50000
========================================================================================================

Net charge: 0 (F: 0, A: 0, C: 0)
Current Box:  49.73454   0.00000   0.00000 [A]
               0.00000  49.73454   0.00000 [A]
               0.00000   0.00000  49.73454 [A]
Box-lengths:  49.73454  49.73454  49.73454 Box-angles:   90.00000  90.00000  90.00000 [degrees]
Volume: 123019.60165 [A^3]

Loadings per component:
----------------------------------------------------------------------------------------------------------------------------------------------------
Component 0 (argon), current number of integer/fractional/reaction molecules: 1278/0/0, density: 689.12971 [kg/m^3]
	absolute adsorption: 159.75000 [mol/uc],        11.0782 [mol/kg],            442.5513 [mg/g]
	                                               248.3062 [cm^3 STP/g],        386.6557 [cm^3 STP/cm^3]
	excess adsorption:   159.75000 [mol/uc],        11.0782 [mol/kg],            442.5513 [mg/g]
	                                               248.3062 [cm^3 STP/g],        386.6557 [cm^3 STP/cm^3]
----------------------------------------------------------------------------------------------------------------------------------------------------
Degrees of freedom: 3834 0 3834 0
Number of Framework-atoms:   5760
Number of Adsorbates:        1278 (1278 integer, 0 fractional, 0 reaction)
Number of Cations:              0 (0 integer, 0 fractional, 0 reaction

Current total potential energy:          -3710742.7390892720 [K]
	Current Host-Host energy:                     0.0000000000 [K]
	Current Host-Adsorbate energy:         -3424142.0896332571 [K]
	Current Host-Cation energy:                   0.0000000000 [K]
	Current Adsorbate-Adsorbate energy:     -286600.6494560047 [K]
	Current Cation-Cation energy:                 0.0000000000 [K]
	Current Adsorbate-Cation energy:              0.0000000000 [K]



[Init] Current cycle: 3000 out of 50000
========================================================================================================

Net charge: 0 (F: 0, A: 0, C: 0)
Current Box:  49.73454   0.00000   0.00000 [A]
               0.00000  49.73454   0.00000 [A]
               0.00000   0.00000  49.73454 [A]
Box-lengths:  49.73454  49.73454  49.73454 Box-angles:   90.00000  90.00000  90.00000 [degrees]
Volume: 123019.60165 [A^3]

Loadings per component:
----------------------------------------------------------------------------------------------------------------------------------------------------
Component 0 (argon), current number of integer/fractional/reaction molecules: 1282/0/0, density: 691.28661 [kg/m^3]
	absolute adsorption: 160.25000 [mol/uc],        11.1129 [mol/kg],            443.9365 [mg/g]
	                                               249.0833 [cm^3 STP/g],        387.8659 [cm^3 STP/cm^3]
	excess adsorption:   160.25000 [mol/uc],        11.1129 [mol/kg],            443.9365 [mg/g]
	                                               249.0833 [cm^3 STP/g],        387.8659 [cm^3 STP/cm^3]
----------------------------------------------------------------------------------------------------------------------------------------------------
Degrees of freedom: 3846 0 3846 0
Number of Framework-atoms:   5760
Number of Adsorbates:        1282 (1282 integer, 0 fractional, 0 reaction)
Number of Cations:              0 (0 integer, 0 fractional, 0 reaction

Current total potential energy:          -3715232.8467666321 [K]
	Current Host-Host energy:                     0.0000000000 [K]
	Current Host-Adsorbate energy:         -3430722.5163131431 [K]
	Current Host-Cation energy:                   0.0000000000 [K]
	Current Adsorbate-Adsorbate energy:     -284510.3304534734 [K]
	Current Cation-Cation energy:                 0.0000000000 [K]
	Current Adsorbate-Cation energy:              0.0000000000 [K]



[Init] Current cycle: 3500 out of 50000
========================================================================================================

Net charge: 0 (F: 0, A: 0, C: 0)
Current Box:  49.73454   0.00000   0.00000 [A]
               0.00000  49.73454   0.00000 [A]
               0.00000   0.00000  49.73454 [A]
Box-lengths:  49.73454  49.73454  49.73454 Box-angles:   90.00000  90.00000  90.00000 [degrees]
Volume: 123019.60165 [A^3]

Loadings per component:
----------------------------------------------------------------------------------------------------------------------------------------------------
Component 0 (argon), current number of integer/fractional/reaction molecules: 1288/0/0, density: 694.52196 [kg/m^3]
	absolute adsorption: 161.00000 [mol/uc],        11.1649 [mol/kg],            446.0142 [mg/g]
	                                               250.2491 [cm^3 STP/g],        389.6812 [cm^3 STP/cm^3]
	excess adsorption:   161.00000 [mol/uc],        11.1649 [mol/kg],            446.0142 [mg/g]
	                                               250.2491 [cm^3 STP/g],        389.6812 [cm^3 STP/cm^3]
----------------------------------------------------------------------------------------------------------------------------------------------------
Degrees of freedom: 3864 0 3864 0
Number of Framework-atoms:   5760
Number of Adsorbates:        1288 (1288 integer, 0 fractional, 0 reaction)
Number of Cations:              0 (0 integer, 0 fractional, 0 reaction

Current total potential energy:          -3732554.4691747823 [K]
	Current Host-Host energy:                     0.0000000000 [K]
	Current Host-Adsorbate energy:         -3452412.5174188847 [K]
	Current Host-Cation energy:                   0.0000000000 [K]
	Current Adsorbate-Adsorbate energy:     -280141.9517558996 [K]
	Current Cation-Cation energy:                 0.0000000000 [K]
	Current Adsorbate-Cation energy:              0.0000000000 [K]



[Init] Current cycle: 4000 out of 50000
========================================================================================================

Net charge: 0 (F: 0, A: 0, C: 0)
Current Box:  49.73454   0.00000   0.00000 [A]
               0.00000  49.73454   0.00000 [A]
               0.00000   0.00000  49.73454 [A]
Box-lengths:  49.73454  49.73454  49.73454 Box-angles:   90.00000  90.00000  90.00000 [degrees]
Volume: 123019.60165 [A^3]

Loadings per component:
----------------------------------------------------------------------------------------------------------------------------------------------------
Component 0 (argon), current number of integer/fractional/reaction molecules: 1291/0/0, density: 696.13963 [kg/m^3]
	absolute adsorption: 161.37500 [mol/uc],        11.1909 [mol/kg],            447.0530 [mg/g]
	                                               250.8320 [cm^3 STP/g],        390.5888 [cm^3 STP/cm^3]
	excess adsorption:   161.37500 [mol/uc],        11.1909 [mol/kg],            447.0530 [mg/g]
	                                               250.8320 [cm^3 STP/g],        390.5888 [cm^3 STP/cm^3]
----------------------------------------------------------------------------------------------------------------------------------------------------
Degrees of freedom: 3873 0 3873 0
Number of Framework-atoms:   5760
Number of Adsorbates:        1291 (1291 integer, 0 fractional, 0 reaction)
Number of Cations:              0 (0 integer, 0 fractional, 0 reaction

Current total potential energy:          -3742329.4337272500 [K]
	Current Host-Host energy:                     0.0000000000 [K]
	Current Host-Adsorbate energy:         -3461505.4406976635 [K]
	Current Host-Cation energy:                   0.0000000000 [K]
	Current Adsorbate-Adsorbate energy:     -280823.9930295862 [K]
	Current Cation-Cation energy:                 0.0000000000 [K]
	Current Adsorbate-Cation energy:              0.0000000000 [K]



[Init] Current cycle: 4500 out of 50000
========================================================================================================

Net charge: 0 (F: 0, A: 0, C: 0)
Current Box:  49.73454   0.00000   0.00000 [A]
               0.00000  49.73454   0.00000 [A]
               0.00000   0.00000  49.73454 [A]
Box-lengths:  49.73454  49.73454  49.73454 Box-angles:   90.00000  90.00000  90.00000 [degrees]
Volume: 123019.60165 [A^3]

Loadings per component:
----------------------------------------------------------------------------------------------------------------------------------------------------
Component 0 (argon), current number of integer/fractional/reaction molecules: 1295/0/0, density: 698.29654 [kg/m^3]
	absolute adsorption: 161.87500 [mol/uc],        11.2255 [mol/kg],            448.4382 [mg/g]
	                                               251.6092 [cm^3 STP/g],        391.7990 [cm^3 STP/cm^3]
	excess adsorption:   161.87500 [mol/uc],        11.2255 [mol/kg],            448.4382 [mg/g]
	                                               251.6092 [cm^3 STP/g],        391.7990 [cm^3 STP/cm^3]
----------------------------------------------------------------------------------------------------------------------------------------------------
Degrees of freedom: 3885 0 3885 0
Number of Framework-atoms:   5760
Number of Adsorbates:        1295 (1295 integer, 0 fractional, 0 reaction)
Number of Cations:              0 (0 integer, 0 fractional, 0 reaction

Current total potential energy:          -3750420.5159414057 [K]
	Current Host-Host energy:                     0.0000000000 [K]
	Current Host-Adsorbate energy:         -3462733.2741232435 [K]
	Current Host-Cation energy:                   0.0000000000 [K]
	Current Adsorbate-Adsorbate energy:     -287687.2418181932 [K]
	Current Cation-Cation energy:                 0.0000000000 [K]
	Current Adsorbate-Cation energy:              0.0000000000 [K]



[Init] Current cycle: 5000 out of 50000
========================================================================================================

Net charge: 0 (F: 0, A: 0, C: 0)
Current Box:  49.73454   0.00000   0.00000 [A]
               0.00000  49.73454   0.00000 [A]
               0.00000   0.00000  49.73454 [A]
Box-lengths:  49.73454  49.73454  49.73454 Box-angles:   90.00000  90.00000  90.00000 [degrees]
Volume: 123019.60165 [A^3]

Loadings per component:
----------------------------------------------------------------------------------------------------------------------------------------------------
Component 0 (argon), current number of integer/fractional/reaction molecules: 1303/0/0, density: 702.61034 [kg/m^3]
	absolute adsorption: 162.87500 [mol/uc],        11.2949 [mol/kg],            451.2084 [mg/g]
	                                               253.1635 [cm^3 STP/g],        394.2194 [cm^3 STP/cm^3]
	excess adsorption:   162.87500 [mol/uc],        11.2949 [mol/kg],            451.2084 [mg/g]
	                                               253.1635 [cm^3 STP/g],        394.2194 [cm^3 STP/cm^3]
----------------------------------------------------------------------------------------------------------------------------------------------------
Degrees of freedom: 3909 0 3909 0
Number of Framework-atoms:   5760
Number of Adsorbates:        1303 (1303 integer, 0 fractional, 0 reaction)
Number of Cations:              0 (0 integer, 0 fractional, 0 reaction

Current total potential energy:          -3773708.7600116385 [K]
	Current Host-Host energy:                     0.0000000000 [K]
	Current Host-Adsorbate energy:         -3486922.3041337729 [K]
	Current Host-Cation energy:                   0.0000000000 [K]
	Current Adsorbate-Adsorbate energy:     -286786.4558779628 [K]
	Current Cation-Cation energy:                 0.0000000000 [K]
	Current Adsorbate-Cation energy:              0.0000000000 [K]



[Init] Current cycle: 5500 out of 50000
========================================================================================================

Net charge: 0 (F: 0, A: 0, C: 0)
Current Box:  49.73454   0.00000   0.00000 [A]
               0.00000  49.73454   0.00000 [A]
               0.00000   0.00000  49.73454 [A]
Box-lengths:  49.73454  49.73454  49.73454 Box-angles:   90.00000  90.00000  90.00000 [degrees]
Volume: 123019.60165 [A^3]

Loadings per component:
----------------------------------------------------------------------------------------------------------------------------------------------------
Component 0 (argon), current number of integer/fractional/reaction molecules: 1308/0/0, density: 705.30646 [kg/m^3]
	absolute adsorption: 163.50000 [mol/uc],        11.3382 [mol/kg],            452.9399 [mg/g]
	                                               254.1350 [cm^3 STP/g],        395.7321 [cm^3 STP/cm^3]
	excess adsorption:   163.50000 [mol/uc],        11.3382 [mol/kg],            452.9399 [mg/g]
	                                               254.1350 [cm^3 STP/g],        395.7321 [cm^3 STP/cm^3]
----------------------------------------------------------------------------------------------------------------------------------------------------
Degrees of freedom: 3924 0 3924 0
Number of Framework-atoms:   5760
Number of Adsorbates:        1308 (1308 integer, 0 fractional, 0 reaction)
Number of Cations:              0 (0 integer, 0 fractional, 0 reaction

Current total potential energy:          -3772257.8649292230 [K]
	Current Host-Host energy:                     0.0000000000 [K]
	Current Host-Adsorbate energy:         -3490187.6880234363 [K]
	Current Host-Cation energy:                   0.0000000000 [K]
	Current Adsorbate-Adsorbate energy:     -282070.1769059424 [K]
	Current Cation-Cation energy:                 0.0000000000 [K]
	Current Adsorbate-Cation energy:              0.0000000000 [K]



[Init] Current cycle: 6000 out of 50000
========================================================================================================

Net charge: 0 (F: 0, A: 0, C: 0)
Current Box:  49.73454   0.00000   0.00000 [A]
               0.00000  49.73454   0.00000 [A]
               0.00000   0.00000  49.73454 [A]
Box-lengths:  49.73454  49.73454  49.73454 Box-angles:   90.00000  90.00000  90.00000 [degrees]
Volume: 123019.60165 [A^3]

Loadings per component:
----------------------------------------------------------------------------------------------------------------------------------------------------
Component 0 (argon), current number of integer/fractional/reaction molecules: 1314/0/0, density: 708.54181 [kg/m^3]
	absolute adsorption: 164.25000 [mol/uc],        11.3902 [mol/kg],            455.0176 [mg/g]
	                                               255.3007 [cm^3 STP/g],        397.5474 [cm^3 STP/cm^3]
	excess adsorption:   164.25000 [mol/uc],        11.3902 [mol/kg],            455.0176 [mg/g]
	                                               255.3007 [cm^3 STP/g],        397.5474 [cm^3 STP/cm^3]
----------------------------------------------------------------------------------------------------------------------------------------------------
Degrees of freedom: 3942 0 3942 0
Number of Framework-atoms:   5760
Number of Adsorbates:        1314 (1314 integer, 0 fractional, 0 reaction)
Number of Cations:              0 (0 integer, 0 fractional, 0 reaction

Current total potential energy:          -3789918.4468148071 [K]
	Current Host-Host energy:                     0.0000000000 [K]
	Current Host-Adsorbate energy:         -3510902.0333657167 [K]
	Current Host-Cation energy:                   0.0000000000 [K]
	Current Adsorbate-Adsorbate energy:     -279016.4134492379 [K]
	Current Cation-Cation energy:                 0.0000000000 [K]
	Current Adsorbate-Cation energy:              0.0000000000 [K]



[Init] Current cycle: 6500 out of 50000
========================================================================================================

Net charge: 0 (F: 0, A: 0, C: 0)
Current Box:  49.73454   0.00000   0.00000 [A]
               0.00000  49.73454   0.00000 [A]
               0.00000   0.00000  49.73454 [A]
Box-lengths:  49.73454  49.73454  49.73454 Box-angles:   90.00000  90.00000  90.00000 [degrees]
Volume: 123019.60165 [A^3]

Loadings per component:
----------------------------------------------------------------------------------------------------------------------------------------------------
Component 0 (argon), current number of integer/fractional/reaction molecules: 1321/0/0, density: 712.31639 [kg/m^3]
	absolute adsorption: 165.12500 [mol/uc],        11.4509 [mol/kg],            457.4416 [mg/g]
	                                               256.6608 [cm^3 STP/g],        399.6653 [cm^3 STP/cm^3]
	excess adsorption:   165.12500 [mol/uc],        11.4509 [mol/kg],            457.4416 [mg/g]
	                                               256.6608 [cm^3 STP/g],        399.6653 [cm^3 STP/cm^3]
----------------------------------------------------------------------------------------------------------------------------------------------------
Degrees of freedom: 3963 0 3963 0
Number of Framework-atoms:   5760
Number of Adsorbates:        1321 (1321 integer, 0 fractional, 0 reaction)
Number of Cations:              0 (0 integer, 0 fractional, 0 reaction

Current total potential energy:          -3805521.2248436837 [K]
	Current Host-Host energy:                     0.0000000000 [K]
	Current Host-Adsorbate energy:         -3521991.7850216837 [K]
	Current Host-Cation energy:                   0.0000000000 [K]
	Current Adsorbate-Adsorbate energy:     -283529.4398221726 [K]
	Current Cation-Cation energy:                 0.0000000000 [K]
	Current Adsorbate-Cation energy:              0.0000000000 [K]



[Init] Current cycle: 7000 out of 50000
========================================================================================================

Net charge: 0 (F: 0, A: 0, C: 0)
Current Box:  49.73454   0.00000   0.00000 [A]
               0.00000  49.73454   0.00000 [A]
               0.00000   0.00000  49.73454 [A]
Box-lengths:  49.73454  49.73454  49.73454 Box-angles:   90.00000  90.00000  90.00000 [degrees]
Volume: 123019.60165 [A^3]

Loadings per component:
----------------------------------------------------------------------------------------------------------------------------------------------------
Component 0 (argon), current number of integer/fractional/reaction molecules: 1329/0/0, density: 716.63019 [kg/m^3]
	absolute adsorption: 166.12500 [mol/uc],        11.5203 [mol/kg],            460.2118 [mg/g]
	                                               258.2151 [cm^3 STP/g],        402.0856 [cm^3 STP/cm^3]
	excess adsorption:   166.12500 [mol/uc],        11.5203 [mol/kg],            460.2118 [mg/g]
	                                               258.2151 [cm^3 STP/g],        402.0856 [cm^3 STP/cm^3]
----------------------------------------------------------------------------------------------------------------------------------------------------
Degrees of freedom: 3987 0 3987 0
Number of Framework-atoms:   5760
Number of Adsorbates:        1329 (1329 integer, 0 fractional, 0 reaction)
Number of Cations:              0 (0 integer, 0 fractional, 0 reaction

Current total potential energy:          -3822633.1887604482 [K]
	Current Host-Host energy:                     0.0000000000 [K]
	Current Host-Adsorbate energy:         -3544219.0226663570 [K]
	Current Host-Cation energy:                   0.0000000000 [K]
	Current Adsorbate-Adsorbate energy:     -278414.1660942950 [K]
	Current Cation-Cation energy:                 0.0000000000 [K]
	Current Adsorbate-Cation energy:              0.0000000000 [K]



[Init] Current cycle: 7500 out of 50000
========================================================================================================

Net charge: 0 (F: 0, A: 0, C: 0)
Current Box:  49.73454   0.00000   0.00000 [A]
               0.00000  49.73454   0.00000 [A]
               0.00000   0.00000  49.73454 [A]
Box-lengths:  49.73454  49.73454  49.73454 Box-angles:   90.00000  90.00000  90.00000 [degrees]
Volume: 123019.60165 [A^3]

Loadings per component:
----------------------------------------------------------------------------------------------------------------------------------------------------
Component 0 (argon), current number of integer/fractional/reaction molecules: 1333/0/0, density: 718.78709 [kg/m^3]
	absolute adsorption: 166.62500 [mol/uc],        11.5549 [mol/kg],            461.5970 [mg/g]
	                                               258.9923 [cm^3 STP/g],        403.2958 [cm^3 STP/cm^3]
	excess adsorption:   166.62500 [mol/uc],        11.5549 [mol/kg],            461.5970 [mg/g]
	                                               258.9923 [cm^3 STP/g],        403.2958 [cm^3 STP/cm^3]
----------------------------------------------------------------------------------------------------------------------------------------------------
Degrees of freedom: 3999 0 3999 0
Number of Framework-atoms:   5760
Number of Adsorbates:        1333 (1333 integer, 0 fractional, 0 reaction)
Number of Cations:              0 (0 integer, 0 fractional, 0 reaction

Current total potential energy:          -3834881.4603772196 [K]
	Current Host-Host energy:                     0.0000000000 [K]
	Current Host-Adsorbate energy:         -3554170.5715650860 [K]
	Current Host-Cation energy:                   0.0000000000 [K]
	Current Adsorbate-Adsorbate energy:     -280710.8888123948 [K]
	Current Cation-Cation energy:                 0.0000000000 [K]
	Current Adsorbate-Cation energy:              0.0000000000 [K]



[Init] Current cycle: 8000 out of 50000
========================================================================================================

Net charge: 0 (F: 0, A: 0, C: 0)
Current Box:  49.73454   0.00000   0.00000 [A]
               0.00000  49.73454   0.00000 [A]
               0.00000   0.00000  49.73454 [A]
Box-lengths:  49.73454  49.73454  49.73454 Box-angles:   90.00000  90.00000  90.00000 [degrees]
Volume: 123019.60165 [A^3]

Loadings per component:
----------------------------------------------------------------------------------------------------------------------------------------------------
Component 0 (argon), current number of integer/fractional/reaction molecules: 1334/0/0, density: 719.32631 [kg/m^3]
	absolute adsorption: 166.75000 [mol/uc],        11.5636 [mol/kg],            461.9433 [mg/g]
	                                               259.1866 [cm^3 STP/g],        403.5984 [cm^3 STP/cm^3]
	excess adsorption:   166.75000 [mol/uc],        11.5636 [mol/kg],            461.9433 [mg/g]
	                                               259.1866 [cm^3 STP/g],        403.5984 [cm^3 STP/cm^3]
----------------------------------------------------------------------------------------------------------------------------------------------------
Degrees of freedom: 4002 0 4002 0
Number of Framework-atoms:   5760
Number of Adsorbates:        1334 (1334 integer, 0 fractional, 0 reaction)
Number of Cations:              0 (0 integer, 0 fractional, 0 reaction

Current total potential energy:          -3840982.9072547443 [K]
	Current Host-Host energy:                     0.0000000000 [K]
	Current Host-Adsorbate energy:         -3554943.4370333971 [K]
	Current Host-Cation energy:                   0.0000000000 [K]
	Current Adsorbate-Adsorbate energy:     -286039.4702215791 [K]
	Current Cation-Cation energy:                 0.0000000000 [K]
	Current Adsorbate-Cation energy:              0.0000000000 [K]



[Init] Current cycle: 8500 out of 50000
========================================================================================================

Net charge: 0 (F: 0, A: 0, C: 0)
Current Box:  49.73454   0.00000   0.00000 [A]
               0.00000  49.73454   0.00000 [A]
               0.00000   0.00000  49.73454 [A]
Box-lengths:  49.73454  49.73454  49.73454 Box-angles:   90.00000  90.00000  90.00000 [degrees]
Volume: 123019.60165 [A^3]

Loadings per component:
----------------------------------------------------------------------------------------------------------------------------------------------------
Component 0 (argon), current number of integer/fractional/reaction molecules: 1336/0/0, density: 720.40477 [kg/m^3]
	absolute adsorption: 167.00000 [mol/uc],        11.5810 [mol/kg],            462.6358 [mg/g]
	                                               259.5752 [cm^3 STP/g],        404.2035 [cm^3 STP/cm^3]
	excess adsorption:   167.00000 [mol/uc],        11.5810 [mol/kg],            462.6358 [mg/g]
	                                               259.5752 [cm^3 STP/g],        404.2035 [cm^3 STP/cm^3]
----------------------------------------------------------------------------------------------------------------------------------------------------
Degrees of freedom: 4008 0 4008 0
Number of Framework-atoms:   5760
Number of Adsorbates:        1336 (1336 integer, 0 fractional, 0 reaction)
Number of Cations:              0 (0 integer, 0 fractional, 0 reaction

Current total potential energy:          -3844287.2391537358 [K]
	Current Host-Host energy:                     0.0000000000 [K]
	Current Host-Adsorbate energy:         -3563583.0284005334 [K]
	Current Host-Cation energy:                   0.0000000000 [K]
	Current Adsorbate-Adsorbate energy:     -280704.2107533838 [K]
	Current Cation-Cation energy:                 0.0000000000 [K]
	Current Adsorbate-Cation energy:              0.0000000000 [K]



[Init] Current cycle: 9000 out of 50000
========================================================================================================

Net charge: 0 (F: 0, A: 0, C: 0)
Current Box:  49.73454   0.00000   0.00000 [A]
               0.00000  49.73454   0.00000 [A]
               0.00000   0.00000  49.73454 [A]
Box-lengths:  49.73454  49.73454  49.73454 Box-angles:   90.00000  90.00000  90.00000 [degrees]
Volume: 123019.60165 [A^3]

Loadings per component:
----------------------------------------------------------------------------------------------------------------------------------------------------
Component 0 (argon), current number of integer/fractional/reaction molecules: 1336/0/0, density: 720.40477 [kg/m^3]
	absolute adsorption: 167.00000 [mol/uc],        11.5810 [mol/kg],            462.6358 [mg/g]
	                                               259.5752 [cm^3 STP/g],        404.2035 [cm^3 STP/cm^3]
	excess adsorption:   167.00000 [mol/uc],        11.5810 [mol/kg],            462.6358 [mg/g]
	                                               259.5752 [cm^3 STP/g],        404.2035 [cm^3 STP/cm^3]
----------------------------------------------------------------------------------------------------------------------------------------------------
Degrees of freedom: 4008 0 4008 0
Number of Framework-atoms:   5760
Number of Adsorbates:        1336 (1336 integer, 0 fractional, 0 reaction)
Number of Cations:              0 (0 integer, 0 fractional, 0 reaction

Current total potential energy:          -3838835.6101057348 [K]
	Current Host-Host energy:                     0.0000000000 [K]
	Current Host-Adsorbate energy:         -3560833.9950436000 [K]
	Current Host-Cation energy:                   0.0000000000 [K]
	Current Adsorbate-Adsorbate energy:     -278001.6150623300 [K]
	Current Cation-Cation energy:                 0.0000000000 [K]
	Current Adsorbate-Cation energy:              0.0000000000 [K]



[Init] Current cycle: 9500 out of 50000
========================================================================================================

Net charge: 0 (F: 0, A: 0, C: 0)
Current Box:  49.73454   0.00000   0.00000 [A]
               0.00000  49.73454   0.00000 [A]
               0.00000   0.00000  49.73454 [A]
Box-lengths:  49.73454  49.73454  49.73454 Box-angles:   90.00000  90.00000  90.00000 [degrees]
Volume: 123019.60165 [A^3]

Loadings per component:
----------------------------------------------------------------------------------------------------------------------------------------------------
Component 0 (argon), current number of integer/fractional/reaction molecules: 1337/0/0, density: 720.94399 [kg/m^3]
	absolute adsorption: 167.12500 [mol/uc],        11.5896 [mol/kg],            462.9821 [mg/g]
	                                               259.7694 [cm^3 STP/g],        404.5060 [cm^3 STP/cm^3]
	excess adsorption:   167.12500 [mol/uc],        11.5896 [mol/kg],            462.9821 [mg/g]
	                                               259.7694 [cm^3 STP/g],        404.5060 [cm^3 STP/cm^3]
----------------------------------------------------------------------------------------------------------------------------------------------------
Degrees of freedom: 4011 0 4011 0
Number of Framework-atoms:   5760
Number of Adsorbates:        1337 (1337 integer, 0 fractional, 0 reaction)
Number of Cations:              0 (0 integer, 0 fractional, 0 reaction

Current total potential energy:          -3851815.5628597033 [K]
	Current Host-Host energy:                     0.0000000000 [K]
	Current Host-Adsorbate energy:         -3571306.7863020431 [K]
	Current Host-Cation energy:                   0.0000000000 [K]
	Current Adsorbate-Adsorbate energy:     -280508.7765578423 [K]
	Current Cation-Cation energy:                 0.0000000000 [K]
	Current Adsorbate-Cation energy:              0.0000000000 [K]



[Init] Current cycle: 10000 out of 50000
========================================================================================================

Net charge: 0 (F: 0, A: 0, C: 0)
Current Box:  49.73454   0.00000   0.00000 [A]
               0.00000  49.73454   0.00000 [A]
               0.00000   0.00000  49.73454 [A]
Box-lengths:  49.73454  49.73454  49.73454 Box-angles:   90.00000  90.00000  90.00000 [degrees]
Volume: 123019.60165 [A^3]

Loadings per component:
----------------------------------------------------------------------------------------------------------------------------------------------------
Component 0 (argon), current number of integer/fractional/reaction molecules: 1339/0/0, density: 722.02244 [kg/m^3]
	absolute adsorption: 167.37500 [mol/uc],        11.6070 [mol/kg],            463.6747 [mg/g]
	                                               260.1580 [cm^3 STP/g],        405.1111 [cm^3 STP/cm^3]
	excess adsorption:   167.37500 [mol/uc],        11.6070 [mol/kg],            463.6747 [mg/g]
	                                               260.1580 [cm^3 STP/g],        405.1111 [cm^3 STP/cm^3]
----------------------------------------------------------------------------------------------------------------------------------------------------
Degrees of freedom: 4017 0 4017 0
Number of Framework-atoms:   5760
Number of Adsorbates:        1339 (1339 integer, 0 fractional, 0 reaction)
Number of Cations:              0 (0 integer, 0 fractional, 0 reaction

Current total potential energy:          -3851424.0393574852 [K]
	Current Host-Host energy:                     0.0000000000 [K]
	Current Host-Adsorbate energy:         -3569426.1703237589 [K]
	Current Host-Cation energy:                   0.0000000000 [K]
	Current Adsorbate-Adsorbate energy:     -281997.8690339146 [K]
	Current Cation-Cation energy:                 0.0000000000 [K]
	Current Adsorbate-Cation energy:              0.0000000000 [K]



[Init] Current cycle: 10500 out of 50000
========================================================================================================

Net charge: 0 (F: 0, A: 0, C: 0)
Current Box:  49.73454   0.00000   0.00000 [A]
               0.00000  49.73454   0.00000 [A]
               0.00000   0.00000  49.73454 [A]
Box-lengths:  49.73454  49.73454  49.73454 Box-angles:   90.00000  90.00000  90.00000 [degrees]
Volume: 123019.60165 [A^3]

Loadings per component:
----------------------------------------------------------------------------------------------------------------------------------------------------
Component 0 (argon), current number of integer/fractional/reaction molecules: 1340/0/0, density: 722.56167 [kg/m^3]
	absolute adsorption: 167.50000 [mol/uc],        11.6156 [mol/kg],            464.0210 [mg/g]
	                                               260.3523 [cm^3 STP/g],        405.4137 [cm^3 STP/cm^3]
	excess adsorption:   167.50000 [mol/uc],        11.6156 [mol/kg],            464.0210 [mg/g]
	                                               260.3523 [cm^3 STP/g],        405.4137 [cm^3 STP/cm^3]
----------------------------------------------------------------------------------------------------------------------------------------------------
Degrees of freedom: 4020 0 4020 0
Number of Framework-atoms:   5760
Number of Adsorbates:        1340 (1340 integer, 0 fractional, 0 reaction)
Number of Cations:              0 (0 integer, 0 fractional, 0 reaction

Current total potential energy:          -3843929.9998876355 [K]
	Current Host-Host energy:                     0.0000000000 [K]
	Current Host-Adsorbate energy:         -3565544.2787029715 [K]
	Current Host-Cation energy:                   0.0000000000 [K]
	Current Adsorbate-Adsorbate energy:     -278385.7211849324 [K]
	Current Cation-Cation energy:                 0.0000000000 [K]
	Current Adsorbate-Cation energy:              0.0000000000 [K]



[Init] Current cycle: 11000 out of 50000
========================================================================================================

Net charge: 0 (F: 0, A: 0, C: 0)
Current Box:  49.73454   0.00000   0.00000 [A]
               0.00000  49.73454   0.00000 [A]
               0.00000   0.00000  49.73454 [A]
Box-lengths:  49.73454  49.73454  49.73454 Box-angles:   90.00000  90.00000  90.00000 [degrees]
[...]
	Block[ 1]            0.00000 [K]
	Block[ 2]            0.00000 [K]
	Block[ 3]            0.00000 [K]
	Block[ 4]            0.00000 [K]
	------------------------------------------------------------------------------
	Average              0.00000 [K] +/-            0.00000 [K]

Average Cation Bend angle inversion energy:
===========================================
	Block[ 0]            0.00000 [K]
	Block[ 1]            0.00000 [K]
	Block[ 2]            0.00000 [K]
	Block[ 3]            0.00000 [K]
	Block[ 4]            0.00000 [K]
	------------------------------------------------------------------------------
	Average              0.00000 [K] +/-            0.00000 [K]

Average Cation Torsion energy:
==============================
	Block[ 0]            0.00000 [K]
	Block[ 1]            0.00000 [K]
	Block[ 2]            0.00000 [K]
	Block[ 3]            0.00000 [K]
	Block[ 4]            0.00000 [K]
	------------------------------------------------------------------------------
	Average              0.00000 [K] +/-            0.00000 [K]

Average Cation Improper Torsion energy:
=======================================
	Block[ 0]            0.00000 [K]
	Block[ 1]            0.00000 [K]
	Block[ 2]            0.00000 [K]
	Block[ 3]            0.00000 [K]
	Block[ 4]            0.00000 [K]
	------------------------------------------------------------------------------
	Average              0.00000 [K] +/-            0.00000 [K]

Average Cation Bond-Bond cross term energy:
=================================================
	Block[ 0]            0.00000 [K]
	Block[ 1]            0.00000 [K]
	Block[ 2]            0.00000 [K]
	Block[ 3]            0.00000 [K]
	Block[ 4]            0.00000 [K]
	------------------------------------------------------------------------------
	Average              0.00000 [K] +/-            0.00000 [K]

Average Cation Bend-Bend cross term energy:
===========================================
	Block[ 0]            0.00000 [K]
	Block[ 1]            0.00000 [K]
	Block[ 2]            0.00000 [K]
	Block[ 3]            0.00000 [K]
	Block[ 4]            0.00000 [K]
	------------------------------------------------------------------------------
	Average              0.00000 [K] +/-            0.00000 [K]

Average Cation Bond-Bend cross term energy:
==============================================
	Block[ 0]            0.00000 [K]
	Block[ 1]            0.00000 [K]
	Block[ 2]            0.00000 [K]
	Block[ 3]            0.00000 [K]
	Block[ 4]            0.00000 [K]
	------------------------------------------------------------------------------
	Average              0.00000 [K] +/-            0.00000 [K]

Average Cation Bond-Torsion cross term energy:
==============================================
	Block[ 0]            0.00000 [K]
	Block[ 1]            0.00000 [K]
	Block[ 2]            0.00000 [K]
	Block[ 3]            0.00000 [K]
	Block[ 4]            0.00000 [K]
	------------------------------------------------------------------------------
	Average              0.00000 [K] +/-            0.00000 [K]

Average Cation Bend-Torsion cross term energy:
==============================================
	Block[ 0]            0.00000 [K]
	Block[ 1]            0.00000 [K]
	Block[ 2]            0.00000 [K]
	Block[ 3]            0.00000 [K]
	Block[ 4]            0.00000 [K]
	------------------------------------------------------------------------------
	Average              0.00000 [K] +/-            0.00000 [K]

Average Cation Intra Van der Waals energy:
==========================================
	Block[ 0]            0.00000 [K]
	Block[ 1]            0.00000 [K]
	Block[ 2]            0.00000 [K]
	Block[ 3]            0.00000 [K]
	Block[ 4]            0.00000 [K]
	------------------------------------------------------------------------------
	Average              0.00000 [K] +/-            0.00000 [K]

Average Cation Intra charge-charge Coulomb energy:
====================================
	Block[ 0]            0.00000 [K]
	Block[ 1]            0.00000 [K]
	Block[ 2]            0.00000 [K]
	Block[ 3]            0.00000 [K]
	Block[ 4]            0.00000 [K]
	------------------------------------------------------------------------------
	Average              0.00000 [K] +/-            0.00000 [K]

Average Cation Intra charge-bonddipole Coulomb energy:
====================================
	Block[ 0]            0.00000 [K]
	Block[ 1]            0.00000 [K]
	Block[ 2]            0.00000 [K]
	Block[ 3]            0.00000 [K]
	Block[ 4]            0.00000 [K]
	------------------------------------------------------------------------------
	Average              0.00000 [K] +/-            0.00000 [K]

Average Cation Intra bonddipole-bonddipole Coulomb energy:
====================================
	Block[ 0]            0.00000 [K]
	Block[ 1]            0.00000 [K]
	Block[ 2]            0.00000 [K]
	Block[ 3]            0.00000 [K]
	Block[ 4]            0.00000 [K]
	------------------------------------------------------------------------------
	Average              0.00000 [K] +/-            0.00000 [K]

Average Host-Host energy:
=========================
	Block[ 0] 0.00000            Van der Waals: 0.00000            Coulomb: 0.00000            [K]
	Block[ 1] 0.00000            Van der Waals: 0.00000            Coulomb: 0.00000            [K]
	Block[ 2] 0.00000            Van der Waals: 0.00000            Coulomb: 0.00000            [K]
	Block[ 3] 0.00000            Van der Waals: 0.00000            Coulomb: 0.00000            [K]
	Block[ 4] 0.00000            Van der Waals: 0.00000            Coulomb: 0.00000            [K]
	------------------------------------------------------------------------------
	Average   0.00000            Van der Waals: 0.000000           Coulomb: 0.00000            [K]
	      +/- 0.00000                       +/- 0.000000                +/- 0.00000            [K]

Average Adsorbate-Adsorbate energy:
===================================
	Block[ 0] -267432.16979      Van der Waals: -267432.16979      Coulomb: 0.00000            [K]
	Block[ 1] -266853.01735      Van der Waals: -266853.01735      Coulomb: 0.00000            [K]
	Block[ 2] -265831.09573      Van der Waals: -265831.09573      Coulomb: 0.00000            [K]
	Block[ 3] -265592.80088      Van der Waals: -265592.80088      Coulomb: 0.00000            [K]
	Block[ 4] -266031.04489      Van der Waals: -266031.04489      Coulomb: 0.00000            [K]
	------------------------------------------------------------------------------
	Average   -266348.02573      Van der Waals: -266348.025729     Coulomb: 0.00000            [K]
	      +/- 1376.50076                    +/- 1376.500762             +/- 0.00000            [K]

Average Cation-Cation energy:
=============================
	Block[ 0] 0.00000            Van der Waals: 0.00000            Coulomb: 0.00000            [K]
	Block[ 1] 0.00000            Van der Waals: 0.00000            Coulomb: 0.00000            [K]
	Block[ 2] 0.00000            Van der Waals: 0.00000            Coulomb: 0.00000            [K]
	Block[ 3] 0.00000            Van der Waals: 0.00000            Coulomb: 0.00000            [K]
	Block[ 4] 0.00000            Van der Waals: 0.00000            Coulomb: 0.00000            [K]
	------------------------------------------------------------------------------
	Average   0.00000            Van der Waals: 0.000000           Coulomb: 0.00000            [K]
	      +/- 0.00000                       +/- 0.000000                +/- 0.00000            [K]

Average Host-Adsorbate energy:
==============================
	Block[ 0] -3642616.88626     Van der Waals: -3642616.88626     Coulomb: 0.00000            [K]
	Block[ 1] -3644762.14662     Van der Waals: -3644762.14662     Coulomb: 0.00000            [K]
	Block[ 2] -3647400.16151     Van der Waals: -3647400.16151     Coulomb: 0.00000            [K]
	Block[ 3] -3647374.62276     Van der Waals: -3647374.62276     Coulomb: 0.00000            [K]
	Block[ 4] -3651388.86008     Van der Waals: -3651388.86008     Coulomb: 0.00000            [K]
	------------------------------------------------------------------------------
	Average   -3646708.53545     Van der Waals: -3646708.535447    Coulomb: 0.00000            [K]
	      +/- 5889.48080                    +/- 5889.480803             +/- 0.00000            [K]

Average Host-Cation energy:
===========================
	Block[ 0] 0.00000            Van der Waals: 0.00000            Coulomb: 0.00000            [K]
	Block[ 1] 0.00000            Van der Waals: 0.00000            Coulomb: 0.00000            [K]
	Block[ 2] 0.00000            Van der Waals: 0.00000            Coulomb: 0.00000            [K]
	Block[ 3] 0.00000            Van der Waals: 0.00000            Coulomb: 0.00000            [K]
	Block[ 4] 0.00000            Van der Waals: 0.00000            Coulomb: 0.00000            [K]
	------------------------------------------------------------------------------
	Average   0.00000            Van der Waals: 0.000000           Coulomb: 0.00000            [K]
	      +/- 0.00000                       +/- 0.000000                +/- 0.00000            [K]

Average Adsorbate-Cation energy:
================================
	Block[ 0] 0.00000            Van der Waals: 0.00000            Coulomb: 0.00000            [K]
	Block[ 1] 0.00000            Van der Waals: 0.00000            Coulomb: 0.00000            [K]
	Block[ 2] 0.00000            Van der Waals: 0.00000            Coulomb: 0.00000            [K]
	Block[ 3] 0.00000            Van der Waals: 0.00000            Coulomb: 0.00000            [K]
	Block[ 4] 0.00000            Van der Waals: 0.00000            Coulomb: 0.00000            [K]
	------------------------------------------------------------------------------
	Average   0.00000            Van der Waals: 0.000000           Coulomb: 0.00000            [K]
	      +/- 0.00000                       +/- 0.000000                +/- 0.00000            [K]

Host polarization energy:
=======================
	Block[ 0]            0.00000 [K]
	Block[ 1]            0.00000 [K]
	Block[ 2]            0.00000 [K]
	Block[ 3]            0.00000 [K]
	Block[ 4]            0.00000 [K]
	------------------------------------------------------------------------------
	Average              0.00000 [K] +/-            0.00000 [K]

Adsorbate polarization energy:
=======================
	Block[ 0]            0.00000 [K]
	Block[ 1]            0.00000 [K]
	Block[ 2]            0.00000 [K]
	Block[ 3]            0.00000 [K]
	Block[ 4]            0.00000 [K]
	------------------------------------------------------------------------------
	Average              0.00000 [K] +/-            0.00000 [K]

Cation polarization energy:
=======================
	Block[ 0]            0.00000 [K]
	Block[ 1]            0.00000 [K]
	Block[ 2]            0.00000 [K]
	Block[ 3]            0.00000 [K]
	Block[ 4]            0.00000 [K]
	------------------------------------------------------------------------------
	Average              0.00000 [K] +/-            0.00000 [K]

Host back-polarization energy:
=======================
	Block[ 0]            0.00000 [K]
	Block[ 1]            0.00000 [K]
	Block[ 2]            0.00000 [K]
	Block[ 3]            0.00000 [K]
	Block[ 4]            0.00000 [K]
	------------------------------------------------------------------------------
	Average              0.00000 [K] +/-            0.00000 [K]

Adsorbate back-polarization energy:
=======================
	Block[ 0]            0.00000 [K]
	Block[ 1]            0.00000 [K]
	Block[ 2]            0.00000 [K]
	Block[ 3]            0.00000 [K]
	Block[ 4]            0.00000 [K]
	------------------------------------------------------------------------------
	Average              0.00000 [K] +/-            0.00000 [K]

Cation back-polarization energy:
=======================
	Block[ 0]            0.00000 [K]
	Block[ 1]            0.00000 [K]
	Block[ 2]            0.00000 [K]
	Block[ 3]            0.00000 [K]
	Block[ 4]            0.00000 [K]
	------------------------------------------------------------------------------
	Average              0.00000 [K] +/-            0.00000 [K]

Tail-correction energy:
=======================
	Block[ 0]            0.00000 [K]
	Block[ 1]            0.00000 [K]
	Block[ 2]            0.00000 [K]
	Block[ 3]            0.00000 [K]
	Block[ 4]            0.00000 [K]
	------------------------------------------------------------------------------
	Average              0.00000 [K] +/-            0.00000 [K]

Distance-constraints energy:
=======================
	Block[ 0]            0.00000 [K]
	Block[ 1]            0.00000 [K]
	Block[ 2]            0.00000 [K]
	Block[ 3]            0.00000 [K]
	Block[ 4]            0.00000 [K]
	------------------------------------------------------------------------------
	Average              0.00000 [K] +/-            0.00000 [K]

Angle-constraints energy:
=======================
	Block[ 0]            0.00000 [K]
	Block[ 1]            0.00000 [K]
	Block[ 2]            0.00000 [K]
	Block[ 3]            0.00000 [K]
	Block[ 4]            0.00000 [K]
	------------------------------------------------------------------------------
	Average              0.00000 [K] +/-            0.00000 [K]

Dihedral-constraints energy:
=======================
	Block[ 0]            0.00000 [K]
	Block[ 1]            0.00000 [K]
	Block[ 2]            0.00000 [K]
	Block[ 3]            0.00000 [K]
	Block[ 4]            0.00000 [K]
	------------------------------------------------------------------------------
	Average              0.00000 [K] +/-            0.00000 [K]

Inversion-bend constraints energy:
=======================
	Block[ 0]            0.00000 [K]
	Block[ 1]            0.00000 [K]
	Block[ 2]            0.00000 [K]
	Block[ 3]            0.00000 [K]
	Block[ 4]            0.00000 [K]
	------------------------------------------------------------------------------
	Average              0.00000 [K] +/-            0.00000 [K]

Out-of-plane-distance constraints energy:
=======================
	Block[ 0]            0.00000 [K]
	Block[ 1]            0.00000 [K]
	Block[ 2]            0.00000 [K]
	Block[ 3]            0.00000 [K]
	Block[ 4]            0.00000 [K]
	------------------------------------------------------------------------------
	Average              0.00000 [K] +/-            0.00000 [K]

Exclusion-constraints energy:
=======================
	Block[ 0]            0.00000 [K]
	Block[ 1]            0.00000 [K]
	Block[ 2]            0.00000 [K]
	Block[ 3]            0.00000 [K]
	Block[ 4]            0.00000 [K]
	------------------------------------------------------------------------------
	Average              0.00000 [K] +/-            0.00000 [K]

Total energy:
=============
	Block[ 0]     -3910049.05605 [K]
	Block[ 1]     -3911615.16398 [K]
	Block[ 2]     -3913231.25724 [K]
	Block[ 3]     -3912967.42364 [K]
	Block[ 4]     -3917419.90497 [K]
	------------------------------------------------------------------------------
	Average       -3913056.56118 [K] +/-         4915.27792 [K]

Number of molecules:
====================

Component 0 [argon]
-------------------------------------------------------------
	Block[ 0] 1366.66840         [-]
	Block[ 1] 1367.00120         [-]
	Block[ 2] 1367.97890         [-]
	Block[ 3] 1368.26520         [-]
	Block[ 4] 1370.39030         [-]
	------------------------------------------------------------------------------
	Average                                   1368.0608000000 +/-       2.6132871468 [-]
	Average loading absolute [molecules/unit cell]      171.0076000000 +/-       0.3266608934 [-]
	Average loading absolute [mol/kg framework]         11.8588660709 +/-       0.0226529569 [-]
	Average loading absolute [milligram/gram framework]        473.7379818022 +/-       0.9049403205 [-]
	Average loading absolute [cm^3 (STP)/gr framework]        265.8043365082 +/-       0.5077428256 [-]
	Average loading absolute [cm^3 (STP)/cm^3 framework]        413.9033951267 +/-       0.7906435317 [-]

	Block[ 0] 1366.66840         [-]
	Block[ 1] 1367.00120         [-]
	Block[ 2] 1367.97890         [-]
	Block[ 3] 1368.26520         [-]
	Block[ 4] 1370.39030         [-]
	------------------------------------------------------------------------------
	Average                                   1368.0608000000 +/-       2.6132871468 [-]
	Average loading excess [molecules/unit cell]      171.0076000000 +/-       0.3266608934 [-]
	Average loading excess [mol/kg framework]         11.8588660709 +/-       0.0226529569 [-]
	Average loading excess [milligram/gram framework]        473.7379818022 +/-       0.9049403205 [-]
	Average loading excess [cm^3 (STP)/gr framework]        265.8043365082 +/-       0.5077428256 [-]
	Average loading excess [cm^3 (STP)/cm^3 framework]        413.9033951267 +/-       0.7906435317 [-]


Average Widom Rosenbluth factor:
================================
	Block[ 0] 0 [-]
	Block[ 1] 0 [-]
	Block[ 2] 0 [-]
	Block[ 3] 0 [-]
	Block[ 4] 0 [-]
	------------------------------------------------------------------------------
	[argon] Average Widom Rosenbluth-weight:   0 +/- 0.000000 [-]

Average Widom chemical potential:
=================================
	Block[ 0] 0 [-]
	Block[ 1] 0 [-]
	Block[ 2] 0 [-]
	Block[ 3] 0 [-]
	Block[ 4] 0 [-]
	------------------------------------------------------------------------------
	[argon] Average chemical potential:   0 +/- 0.000000 [K]

Average Widom Ideal-gas contribution:
=====================================
	Block[ 0] 0 [-]
	Block[ 1] 0 [-]
	Block[ 2] 0 [-]
	Block[ 3] 0 [-]
	Block[ 4] 0 [-]
	------------------------------------------------------------------------------
	[argon] Average Widom Ideal-gas chemical potential:   0 +/- 0.000000 [-]

Average Widom excess contribution:
==================================
	Block[ 0] 0 [-]
	Block[ 1] 0 [-]
	Block[ 2] 0 [-]
	Block[ 3] 0 [-]
	Block[ 4] 0 [-]
	------------------------------------------------------------------------------
	[argon] Average Widom excess chemical potential:   0 +/- 0.000000 [-]

Average Gibbs Widom Rosenbluth factor:
======================================
	Block[ 0] 0 [-]
	Block[ 1] 0 [-]
	Block[ 2] 0 [-]
	Block[ 3] 0 [-]
	Block[ 4] 0 [-]
	------------------------------------------------------------------------------
	[argon] Average Gibbs Widom Rosenbluth-weight:   0 +/- 0.000000 [-]

Average Gibbs Widom chemical potential:
=======================================
	Block[ 0] 0 [-]
	Block[ 1] 0 [-]
	Block[ 2] 0 [-]
	Block[ 3] 0 [-]
	Block[ 4] 0 [-]
	------------------------------------------------------------------------------
	[argon] Average Gibbs chemical potential:   0 +/- 0.000000 [K]

Average Gibbs Widom Ideal-gas contribution:
===========================================
	Block[ 0] 0 [-]
	Block[ 1] 0 [-]
	Block[ 2] 0 [-]
	Block[ 3] 0 [-]
	Block[ 4] 0 [-]
	------------------------------------------------------------------------------
	[argon] Average Gibbs Ideal-gas chemical potential:   0 +/- 0.000000 [-]

Average Gibbs Widom excess contribution:
===========================================
	Block[ 0] 0 [-]
	Block[ 1] 0 [-]
	Block[ 2] 0 [-]
	Block[ 3] 0 [-]
	Block[ 4] 0 [-]
	------------------------------------------------------------------------------
	[argon] Average Gibbs excess chemical potential:   0 +/- 0.000000 [-]

Average Henry coefficient:
==========================
	Block[ 0] 0 [mol/kg/Pa]
	Block[ 1] 0 [mol/kg/Pa]
	Block[ 2] 0 [mol/kg/Pa]
	Block[ 3] 0 [mol/kg/Pa]
	Block[ 4] 0 [mol/kg/Pa]
	------------------------------------------------------------------------------
	[argon] Average Henry coefficient:  0 +/- 0 [mol/kg/Pa]

Average adsorption energy <U_gh>_1-<U_h>_0 obtained from Widom-insertion:
(Note: the total heat of adsorption is dH=<U_gh>_1-<U_h>_0 - <U_g> - RT)
=========================================================================

Simulation finished,  0 warnings


Sun Jun 13 18:11:53 2021
Simulation finished on Sunday, June 13.
The end time was 06:11 PM.

