Compiler and run-time data
===========================================================================
RASPA 2.0.37
Compiled as a 64-bits application
Compiler: gcc Intel(R) C++ gcc 4.8.5 mode
Compile Date = May 12 2020, Compile Time = 18:40:55

Mon Jun  7 06:22:26 2021
Simulation started on Monday, June 07.
The start time was 06:22 AM.

Hostname:    The start time was 06:22 AM.
OS type:     The start time was 06:22 AM.
OS release:  The start time was 06:22 AM.
OS version:  The start time was 06:22 AM.

Simulation
===========================================================================
Dimensions: 3
Random number seed: 1623043345
RASPA directory set to: /mnt/iusers01/ceas01/m86397ah/Installed_software/RASPA
String appended to output-files: 
Number of cycles: 100000
Number of initializing cycles: 100000
Number of equilibration cycles: 0
Print every: 1000
Rectangular boundary condition applied
Timestep: 0.000500
	Degrees of freedom:                        0
	Translational Degrees of freedom:          0
	Rotational Degrees of freedom:             0
	Degrees of freedom Framework:              0


Mutual consistent basic set of units:
======================================
Unit of temperature: Kelvin
Unit of length:      1e-10 [m]
Unit of time:        1e-12 [s]
Unit of mass:        1.66054e-27 [kg]
Unit of charge:      1.60218e-19 [C/particle]

Derived units and their conversion factors:
===========================================
Unit of energy:              1.66054e-23 [J]
Unit of force:               1.66054e-13 [N]
Unit of pressure:            1.66054e+07 [Pa]
Unit of velocity:            100 [m/s]
Unit of acceleration:        1e-08 [m^2/s]
Unit of diffusion:           1e-08 [m^2/s]
Unit of dipole moment:       1.60218e-29 [C.m]
Unit of electric potential:  0.000103643 [V]
Unit of electric field:      1.03643e+06 [V]
Unit of polarizability:      1.54587e-35 [-]
Unit of Coulomb potential:   167101.0800066561  [K]
Unit of dielectric constant: 0.0000154587       [s^2 C^2/(kg m^3)]
Unit of wave vectors:        5.3088374589       [cm^1]
Boltzmann constant:          0.8314464919       [-]

Internal conversion factors:
===========================================
Energy to Kelvin:                                    1.2027242847
FH correction factor                                 2.0211930949
Heat capacity conversion factor:                    10.0000088723
From Debye to internal units:                        4.8032067991
Isothermal compressibility conversion factor:        0.0000000602

Energy conversion factors:
===========================================
From mdyne/A to kcal/mol/A^2:           143.933
From mdyne/A to kj/mol/A^2:             602.214
From mdyne/A to K/A^2:                  72429.7
From mdyne A/rad^2 to kcal/mol/deg^2:   0.0438444


Properties computed
===========================================================================
Movies: yes
	Movie snapshots are appended to file every 1000 cycles
Radial Distribution Function: no
Number of molecules GCMC histogram: no
Histogram of the molecule positions: no
Free energy profiles: no
Pore Size Distribution Function: no
End-to-end distance: no
Histogram of the energy of the system: no
Compute thermodynamic factors: no
Framework spacing histograms: no
Residence times histograms: no
Distance histograms: no
Bend Angle histograms: no
Dihedral angle histograms: no
Angle between planes histograms: no
Molecule properties: no
Infra-red spectra: no
Mean-squared displacement using modified order-N algorithm: no
Velocity-autocorrelation function modified order-N algorithm: no
Rotational velocity-autocorrelation function modified order-N algorithm: no
Molecular orientation-autocorrelation function modified order-N algorithm: no
Bond orientation-autocorrelation function modified order-N algorithm: no
Mean-squared displacement (conventional algorithm): no
Velocity-autocorrelation function (conventional algorithm): no
3D density grid for adsorbates: no
Compute cation an/or adsorption sites: no
dcTST snapshots: no
Compute pressure and stress: no


VTK
===========================================================================
VTK fractional-range position framework atoms: [-0.001000,1.001000] [-0.001000,1.001000] [-0.001000,1.001000]
VTK fractional-range position framework bonds: [-0.151000,1.151000] [-0.151000,1.151000] [-0.151000,1.151000]
VTK fractional-range com-position adsorbate molecules: [-0.101000,1.101000] [-0.101000,1.101000] [-0.101000,1.101000]
VTK fractional-range com-position cation molecules: [-0.101000,1.101000] [-0.101000,1.101000] [-0.101000,1.101000]
	3D free energy grid made for the full simulation-cell


Thermo/Baro-stat NHC parameters
===========================================================================
External temperature: 87 [K]
Beta: 0.0138244 [energy unit]
External Pressure: 101325 [Pa]


Thermostat chain-length: 3
Timescale parameter for thermostat: 0.150000 [ps]
Barostat chain-length:   3
Timescale parameter for barostat:   0.150000 [ps]

Number of Yoshida-Suzuki decomposition steps: 5
Number of respa steps: 5


Method and settings for electrostatics
===============================================================================
Dielectric constant of the medium : 1.000000
Charge from charge-equilibration: no
Ewald summation is used (exact solution of a periodic system)
Relative precision                : 1e-06
Alpha convergence parameter       : 0.265058
kvec (x,y,z)                      : 10 9 10


CFC-RXMC parameters
===========================================================================
Number of reactions: 0


Rattle parameters
===========================================================================
Distance constraint type: r^2-r^2_0
Bend angle constraint type: theta-theta_0
Dihedral angle constraint type: phi-phi_0
Inversion-bend angle constraint type: chi-chi_0
Out-of-plane distance constraint type: r-r_0


Spectra parameters
===========================================================================
Compute normal modes: no


Minimization parameters
===========================================================================
Generalized coordinates are: Cartesian center-of-mass, elements of the orientational matrix p1,p2,p3 and strain
Potential derivatives are evaluated: analytically
Translation of the system is removed from the generalized Hessian: no
Rotation of the system is removed from the generalized Hessian: no
Maximum step-length: 0.3
Convergence factor: 1
Maximum number of minimization steps: 10000
Use gradients in the line-minimizations: yes
RMS gradient tolerance: 1e-06
Maximum gradient tolerance: 1e-06

Distance constraints: 0
Angle constraints: 0
Dihedral constraints: 0

Improper dihedral constraints: 0

Inversion-bend constraints: 0

Out-of-plane constraints: 0

Harmonic distance constraints: 0
Harmonic angle constraints: 0
Harmonic dihedral constraints: 0

Dihedral mid-point measurements: 0

All framework atoms are fixed

Fixed adsorbate atoms:  
Fixed adsorbate groups (center-of-mass):  
Fixed adsorbate groups (orientation):  

Fixed cation atoms:  
Fixed cation groups (center-of-mass):  
Fixed cation groups (orientation):  


dcTST parameters
===========================================================================
Free energy profiles computed: no
Free energy profiles written every 5000 cycles
Free energy mapping: mapped to a,b,c-coordinates
BarrierPosition:       0.0000000000       0.0000000000       0.0000000000
BarrierNormal:         0.0000000000       0.0000000000       0.0000000000
Start with a molecule on top of the barrier: no
Maximum distance to barrier (e.g. distance to minumum free energy):       0.0000000000 [A]
Maximum trajectory time:      10.0000000000 [ps]
Each configuration is used with 5 different initial velocities


Cbmc parameters
===========================================================================
Biasing method: using only the VDW part
Number of trial positions:                                       10
Number of trial positions (reinsertion):                         10
Number of trial positions (partial reinsertion):                 10
Number of trial positions (identity-change):                     10
Number of trial positions (Gibbs particle transfer):             10
Number of trial positions (insertion/deletion):                  10
Number of trial positions (Widom insertion):                     10
Number of trial positions coupled Torsion-selection:             100
Number of trial positions first bead:                            10
Number of trial positions first bead (reinsertion):              10
Number of trial positions first bead (partial reinsertion):      10
Number of trial positions first bead (identity-change):          10
Number of trial positions first bead (Gibbs particle transfer):  10
Number of trial positions first bead (insertion/deletion):       10
Number of trial positions first bead (Widom insertion):          10
Number of trial moves per open bead:                             150
Target acceptance ratio small-mc scheme:                         0.400000
Energy overlap criteria:                                         1e+07
Minimal Rosenbluth factor:                                       1e-150


Pseudo atoms: 7
===========================================================================
Pseudo Atom[   0] Name UNIT     Oxidation:          Element: H    pdb-name: H    Scat. Types:   1   1 Mass=1.000000000  B-factor:0.000   
                 Charge=1.000000000          Polarization=0.000000000  [A^3] (considered a charged atom and no polarization)  Interactions: yes
                 Anisotropic factor:    0.000 [-] (Absolute), Radius:    1.000 [A], Framework-atom:  no
Pseudo Atom[   1] Name DUMMY    Oxidation: +0       Element: H    pdb-name: H    Scat. Types:   1   1 Mass=1.000000000  B-factor:1.000   
                 Charge=0.000000000          Polarization=0.000000000  [A^3] (considered a chargeless atom and no polarization)  Interactions:  no
                 Anisotropic factor:    0.000 [-] (Absolute), Radius:    1.000 [A], Framework-atom:  no
Pseudo Atom[   2] Name He       Oxidation: +0       Element: He   pdb-name: He   Scat. Types:   3   2 Mass=4.002602000  B-factor:1.000   
                 Charge=0.000000000          Polarization=0.000000000  [A^3] (considered a chargeless atom and no polarization)  Interactions: yes
                 Anisotropic factor:    0.000 [-] (Absolute), Radius:    1.000 [A], Framework-atom:  no
Pseudo Atom[   3] Name Ar       Oxidation: +0       Element: Ar   pdb-name: Ar   Scat. Types:  19  18 Mass=39.948000000 B-factor:1.000   
                 Charge=0.000000000          Polarization=0.000000000  [A^3] (considered a chargeless atom and no polarization)  Interactions: yes
                 Anisotropic factor:    0.000 [-] (Absolute), Radius:    1.000 [A], Framework-atom:  no
Pseudo Atom[   4] Name T        Oxidation: +0       Element: Si   pdb-name: Si   Scat. Types:  15  14 Mass=28.085500000 B-factor:1.000   
                 Charge=0.000000000          Polarization=0.000000000  [A^3] (considered a chargeless atom and no polarization)  Interactions: yes
                 Anisotropic factor:    0.000 [-] (Absolute), Radius:    1.180 [A], Framework-atom: yes (charge from pseudo-atoms file)
Pseudo Atom[   5] Name Al       Oxidation: +0       Element: Al   pdb-name: Al   Scat. Types:  14  13 Mass=26.981539000 B-factor:1.000   
                 Charge=0.000000000          Polarization=0.000000000  [A^3] (considered a chargeless atom and no polarization)  Interactions: yes
                 Anisotropic factor:    0.000 [-] (Absolute), Radius:    1.180 [A], Framework-atom:  no
Pseudo Atom[   6] Name O        Oxidation: +0       Element: O    pdb-name: O    Scat. Types:   9   8 Mass=15.999400000 B-factor:1.000   
                 Charge=0.000000000          Polarization=0.000000000  [A^3] (considered a chargeless atom and no polarization)  Interactions: yes
                 Anisotropic factor:    0.000 [-] (Absolute), Radius:    0.500 [A], Framework-atom: yes (charge from pseudo-atoms file)


Forcefield: local
===========================================================================
Minimal distance: 1
CutOff VDW : 12.800000 (163.840000)
CutOff VDW switching on: 11.520000 (132.710400)
CutOff charge-charge : 12.000000 (144.000000)
CutOff charge-charge switching on: 7.800000 (60.840000)
CutOff charge-bonddipole : 12.000000 (144.000000)
CutOff charge-bondipole switching on: 8.400000 (70.560000)
CutOff bonddipole-bonddipole : 12.000000 (144.000000)
CutOff bonddipole-bondipole switching on: 9.000000 (81.000000)
Polarization is neglected
All potentials are unshifted !!!!!!

General mixing rule: Lorentz-Berthelot mixing rules are used FIRST for cross terms
0 cross terms are overwritten using the individual mixing rules from the file 'force_field_mixing_rules.def'
and then 0 terms are overwritten using the specific interactions from the file 'force_field.def'

The force field and all the interactions:
     He -      He [LENNARD_JONES] p_0/k_B:  10.22000 [K], p_1: 2.58000 [A], shift/k_B:   0.00000000 [K], tailcorrection: no
     He -      Ar [LENNARD_JONES] p_0/k_B:  34.99080 [K], p_1: 2.99000 [A], shift/k_B:   0.00000000 [K], tailcorrection: no
     He -       T [LENNARD_JONES] p_0/k_B:  45.45298 [K], p_1: 3.20300 [A], shift/k_B:   0.00000000 [K], tailcorrection: no
     He -      Al [LENNARD_JONES] p_0/k_B:  50.94376 [K], p_1: 3.29400 [A], shift/k_B:   0.00000000 [K], tailcorrection: no
     He -       O [LENNARD_JONES] p_0/k_B:  17.56827 [K], p_1: 2.84900 [A], shift/k_B:   0.00000000 [K], tailcorrection: no
     Ar -      Ar [LENNARD_JONES] p_0/k_B: 119.80000 [K], p_1: 3.40000 [A], shift/k_B:   0.00000000 [K], tailcorrection: no
     Ar -       T [LENNARD_JONES] p_0/k_B: 155.61995 [K], p_1: 3.61300 [A], shift/k_B:   0.00000000 [K], tailcorrection: no
     Ar -      Al [LENNARD_JONES] p_0/k_B: 174.41907 [K], p_1: 3.70400 [A], shift/k_B:   0.00000000 [K], tailcorrection: no
     Ar -       O [LENNARD_JONES] p_0/k_B:  60.14948 [K], p_1: 3.25900 [A], shift/k_B:   0.00000000 [K], tailcorrection: no
      T -       T [LENNARD_JONES] p_0/k_B: 202.15000 [K], p_1: 3.82600 [A], shift/k_B:   0.00000000 [K], tailcorrection: no
      T -      Al [LENNARD_JONES] p_0/k_B: 226.57001 [K], p_1: 3.91700 [A], shift/k_B:   0.00000000 [K], tailcorrection: no
      T -       O [LENNARD_JONES] p_0/k_B:  78.13405 [K], p_1: 3.47200 [A], shift/k_B:   0.00000000 [K], tailcorrection: no
     Al -      Al [LENNARD_JONES] p_0/k_B: 253.94000 [K], p_1: 4.00800 [A], shift/k_B:   0.00000000 [K], tailcorrection: no
     Al -       O [LENNARD_JONES] p_0/k_B:  87.57276 [K], p_1: 3.56300 [A], shift/k_B:   0.00000000 [K], tailcorrection: no
      O -       O [LENNARD_JONES] p_0/k_B:  30.20000 [K], p_1: 3.11800 [A], shift/k_B:   0.00000000 [K], tailcorrection: no


MoleculeDefinitions:
===========================================================================
Component 0 [argon] (Adsorbate molecule)

	MoleculeDefinitions: argon
	Component contains no atoms with charge
	Component contains no atoms with point dipoles (polarization)
	Component has a net charge of 0.000000

	Ideal chain Rosenbluth weight: 1
	Ideal chain total energy: 0.000000

	Critical temparure [K]: 154.580000
	Critical pressure [Pa]: 5043000.000000
	Acentric factor [-]: 0.000000

	RXMC partition factor ln(q/V) [ln(A^(-3))]:       0.0000000000

	Liquid=stable, Vapour=metastable

	MolFraction:           1.0000000000 [-]
	Compressibility:       0.0034503778 [-]

	Density of the bulk fluid phase:    1621.7781374247 [kg/m^3]

	Binary mixture EOS parameters:  (0): 0.000000

	Amount of excess molecules:       0.0000000000 [-]

	Conversion factor molecules/unit cell -> mol/kg:       0.1386940238 [-]
	Conversion factor molecules/unit cell -> mg/g:       5.5405488622 [-]
	Conversion factor molecules/unit cell -> cm^3 STP/gr:       3.1086844855 [-]
	Conversion factor molecules/unit cell -> cm^3 STP/cm^3:       5.0863471820 [-]
	Conversion factor mol/kg -> cm^3 STP/gr:      22.4139757476 [-]
	Conversion factor mol/kg -> cm^3 STP/cm^3:      36.6731531985 [-]

	Partial pressure:    101325.00000000000000 [Pa]
	                        759.93750000000000 [Torr]
	                          1.01325000000000 [bar]
	                          1.00000000000000 [atm]

	Fugacity coefficient:       1.0000000000 [-]

	Partial fugacity:    101325.00000000000000 [Pa]
	                        759.93750000000000 [Torr]
	                          1.01325000000000 [bar]
	                          1.00000000000000 [atm]

	Molecule contains 1 number of atoms
		atom:    0  is of type:    3 [        Ar] (group: 0)

	Molecule contains 0 chirality centers

	Molecule contains 1 number of groups

		group: 0 containing: 1 elements
		-------------------------------------------------
		the group is modelled as flexible, i.e. no constraints
		Mass: 39.948000 [a.u.]
		Mass: 1.510884 [kg/m^3]

		Rotational Degrees of freedom: 0
		Diagonalized inertia vector:       0.0000000000
		                                   0.0000000000
		                                   0.0000000000
		element: 0 atom: 0 [        Ar] Charge:  0.000000 Anisotropy: 0.000000 Connectivity: 0 ()

		Dipole:           0.0000000000 [D]
		Quadrupole:       0.0000000000       0.0000000000       0.0000000000 [D Angstrom]
		Quadrupole tensor [D Angstrom]
				       0.0000000000       0.0000000000       0.0000000000
				       0.0000000000       0.0000000000       0.0000000000
				       0.0000000000       0.0000000000       0.0000000000

	Starting bead for growth               : 0

	Degrees of freedom                     : 0
	Translational degrees of freedom       : 0
	Rotational degrees of freedom          : 0
	Vibrational degrees of freedom         : 0
	Constraint degrees of freedom          : 0

	Number of atoms                        : 1

	Number of constraint bonds             : 0
	Number of constraint bends             : 0
	Number of constraint inversion bends   : 0
	Number of constraint torsions          : 0
	Number of constraint improper torsions : 0
	Number of constraint improper torsions : 0

	Number of bonds                        : 0
	Number of Urey-Bradleys                : 0
	Number of bends                        : 0
	Number of inversion bends              : 0
	Number of torsions                     : 0
	Number of improper torsions            : 0
	Number of improper torsions            : 0

	Number of bond/bond cross terms        : 0
	Number of bond/bend cross terms        : 0
	Number of bend/bend cross terms        : 0
	Number of stretch/torsion cross terms  : 0
	Number of bend/torsion cross terms     : 0

	Number of charges                      : 0
	Number of bond-dipoles                 : 0

	Number of intra Van der Waals                             : 0
	Number of intra charge-charge Coulomb                     : 0
	Number of intra charge-bonddipole Coulomb                 : 0
	Number of intra bonddipole-bonddipole Coulomb             : 0

	Number of excluded intra charge-charge Coulomb                     : 0
	Number of excluded intra charge-bonddipole Coulomb                 : 0
	Number of excluded intra bonddipole-bonddipole Coulomb             : 0

	Number of cbmc-config moves                               : 0

	Particle Moves:             
		ProbabilityTranslationMove:                  20.000000
			TranslationDirection:      XYZ
		Percentage of random translation moves:            0.000000
		Percentage of rotation moves:                      20.000000
		Percentage of random rotation moves:               0.000000
		Percentage of partial reinsertion moves:           0.000000
		Percentage of reinsertion moves:                   20.000000
		Percentage of reinsertion-in-place moves:          0.000000
		Percentage of reinsertion-in-plane moves:          0.000000
		Percentage of identity-change moves:               0.000000
		Percentage of swap (insert/delete) moves:          40.000000
		Percentage of CF swap lambda moves:                0.000000
		Percentage of CB/CFMC swap lambda moves:           0.000000
		Percentage of Widom insertion moves:               0.000000
		Percentage of CF-Widom insertion moves:            0.000000
		Percentage of Gibbs Widom insertion moves:         0.000000
		Percentage of surface-area moves:                  0.000000
		Percentage of Gibbs particle-transfer moves:       0.000000
		Percentage of Gibbs identity-change moves:         0.000000
		Percentage of CF Gibbs lambda-transfer moves:      0.000000
		Percentage of CB/CFMC Gibbs lambda-transfer moves: 0.000000
		Percentage of exchange frac./int. particle moves:  0.000000
		Percentage of fractional mol. to other box moves:  0.000000
		Percentage of lambda-change moves:                 0.000000
		Percentage of fractional to integer moves:         0.000000

	System Moves:
		Percentage of parallel-tempering moves:            0.000000
		Percentage of hyper-parallel-tempering moves:      0.000000
		Percentage of parallel-mol-fraction moves:         0.000000
			   Component A: 0 B: 1
		Percentage of chiral inversion moves:              0.000000
		Percentage of Hybrid-NVE moves:                    0.000000
		Percentage of Hybrid-NPH moves:                    0.000000
		Percentage of Hybrid-NPHPR moves:                  0.000000
		Percentage of volume-change moves:                 0.000000
		Percentage of box-shape-change moves:              0.000000
		Percentage of Gibbs volume-change moves:           0.000000
		Percentage of framework-change moves:              0.000000
		Percentage of framework-shift moves:               0.000000
		Percentage of reactive MC moves:                   0.000000

	Moves are restricted: No
	No biased sampling used for this component


	number of identity-config changes: 1
	--------------------------------------------
	nr fixed 1: 0 

	Number of pockets blocked in a unitcell: 0
		Pockets are NOT blocked for this component



Framework Status
===========================================================================
Lowenstein's rule obeyed by framework
	Framework is modelled as: rigid

	Number of charges:                               0
	Number of bonddipoles:                           0


System Properties
===========================================================================
Unit cell size: 18.180690 31.840590 12.640680
Cell angles (radians)  alpha: 1.570796 beta: 1.570796 gamma: 1.570796
Cell angles (degrees)  alpha: 90.000000 beta: 90.000000 gamma: 90.000000
Number of unitcells [a]: 2
Number of unitcells [b]: 1
Number of unitcells [c]: 3

RECTANGULAR Boundary conditions: alpha=beta=gamma=90 degrees

Cartesian axis A is collinear with crystallographic axis a
Cartesian axis B is collinear with (axb)xA
Cartesian axis C is collinear with (axb)

lengths of cell vectors:
 36.36138  31.84059  37.92204
cosines of cell angles:
  0.00000   0.00000   0.00000
perpendicular cell widths:
 36.36138  31.84059  37.92204
volume of the cell: 43904.916534642980 (A^3)

Orthogonalization matrix Box
Transforms fractional coordinates abc into orthonormal Cartesian coordinates xyz
Deorthogonalization matrix InverseBox
Transforms orthonormal Cartesian coordinates xyz into fractional coordinates xyz

Box[0]:
	   36.361380000000     0.000000000000     0.000000000000
	    0.000000000000    31.840590000000     0.000000000000
	    0.000000000000     0.000000000000    37.922040000000

Inverse box[0]:
	    0.027501706481    -0.000000000000    -0.000000000000
	    0.000000000000     0.031406453210    -0.000000000000
	    0.000000000000     0.000000000000     0.026369889384


Unitcell box[0]:
	   18.180690000000     0.000000000000     0.000000000000
	    0.000000000000    31.840590000000     0.000000000000
	    0.000000000000     0.000000000000    12.640680000000

Unitcell inverse box[0]:
	    0.055003412962    -0.000000000000    -0.000000000000
	    0.000000000000     0.031406453210    -0.000000000000
	    0.000000000000     0.000000000000     0.079109668151

lengths of cell vectors (inverse box):
  0.02750   0.03141   0.02637
cosines of cell angles (inverse box):
 -0.00000  -0.00000  -0.00000
perpendicular cell widths (inverse):
  0.02750   0.03141   0.02637
volume of the cell: 43904.916534642980 (A^3)

No replicas are used
Framework is simulated as 'rigid'
Number of framework atoms: 2160
Number of framework atoms in the unit cell: 360
Framework Mass: 43260.696000001051 [g/mol]
Framework Density:  1636.173502257690 [kg/m^3]    0.6111821262355 [cm^3/g]
Helium void fraction:    0.00000000
Available pore volume:    0.00000000 [A^3]    0.00000000 [cm^3/g]
Conversion factor from molecule/unit cell -> kmol/m^3: 0.0378212, kmol/m^3 accesible pore volume: inf

Number Of Frameworks (per system): 1
----------------------------------------------------------------------
Framework name: zeolite
Space group: 65
	Identifier: 310
	short international Hermann-Mauguin symbol: C m m m
	long international Hermann-Mauguin symbol: C 2/m 2/m 2/m
	Hall symbol: -C 2 2
	Number of lattice translations: 2 [ (0,0,0) (0.5,0.5,0) ]
	acentric/centric: acentric
	chiral: yes
	enantiomorphic: no
	number of operators: 16
		'x,y,z'
		'-x,-y,z'
		'-x,y,-z'
		'x,-y,-z'
		'-x,-y,-z'
		'x,y,-z'
		'x,-y,z'
		'-x,y,z'
		'x+1/2,y+1/2,z'
		'-x+1/2,-y+1/2,z'
		'-x+1/2,y+1/2,-z'
		'x+1/2,-y+1/2,-z'
		'-x+1/2,-y+1/2,-z'
		'x+1/2,y+1/2,-z'
		'x+1/2,-y+1/2,z'
		'-x+1/2,y+1/2,z'
Framework is simulated as 'rigid'
Shift: 0.000000 0.000000 0.000000
Number of framework atoms: 2160
Number of asymmetric atoms: 31
Number of free framework atoms: 0
Number of fixed framework atoms: 2160
Number of framework atoms in the unit cell: 360
Framework Mass: 43260.696000001051 [g/mol]
Framework Density:  1636.173502257690 [kg/m^3]
Framework has net charge: 0.000000
         largest charge : 0.000000
         smallest charge: 0.000000

Using FULL Host-guest interaction calculation (for testing purposes)

Current Atom Status
===========================================================================
Number of framework atoms        : 2160
Number of cations molecules      : 0
Number of adsorbate molecules    : 0
Component    0 :    0 molecules
Pseudo Atoms    0 [    UNIT]:    0 atoms
Pseudo Atoms    1 [   DUMMY]:    0 atoms
Pseudo Atoms    2 [      He]:    0 atoms
Pseudo Atoms    3 [      Ar]:    0 atoms
Pseudo Atoms    4 [       T]:  720 atoms
Pseudo Atoms    5 [      Al]:    0 atoms
Pseudo Atoms    6 [       O]: 1440 atoms


Current (initial full energy) Energy Status
===========================================================================

Internal energy:
Host stretch energy:                                            0.00000000
Host UreyBradley energy:                                        0.00000000
Host bend energy:                                               0.00000000
Host inversion-bend energy:                                     0.00000000
Host torsion energy:                                            0.00000000
Host improper torsion energy:                                   0.00000000
Host out-of-plane energy:                                       0.00000000
Host stretch/stretch energy:                                    0.00000000
Host bend/bend energy:                                          0.00000000
Host stretch/bend energy:                                       0.00000000
Host stretch/torsion energy:                                    0.00000000
Host bend/torsion energy:                                       0.00000000

Adsorbate stretch energy:                                       0.00000000
Adsorbate UreyBradley energy:                                   0.00000000
Adsorbate bend energy:                                          0.00000000
Adsorbate inversion-bend energy:                                0.00000000
Adsorbate torsion energy:                                       0.00000000
Adsorbate improper torsion energy:                              0.00000000
Adsorbate out-of-plane energy:                                  0.00000000
Adsorbate stretch/stretch energy:                               0.00000000
Adsorbate bend/bend energy:                                     0.00000000
Adsorbate stretch/bend energy:                                  0.00000000
Adsorbate stretch/torsion energy:                               0.00000000
Adsorbate bend/torsion energy:                                  0.00000000
Adsorbate intra VDW energy:                                     0.00000000
Adsorbate intra charge-charge Coulomb energy:                   0.00000000
Adsorbate intra charge-bonddipole Coulomb energy:               0.00000000
Adsorbate intra bonddipole-bonddipole Coulomb energy:           0.00000000

Cation stretch energy:                                          0.00000000
Cation UreyBradley energy:                                      0.00000000
Cation bend energy:                                             0.00000000
Cation inversion-bend energy:                                   0.00000000
Cation torsion energy:                                          0.00000000
Cation improper torsion energy:                                 0.00000000
Cation out-of-plane energy:                                     0.00000000
Cation stretch/stretch energy:                                  0.00000000
Cation bend/bend energy:                                        0.00000000
Cation stretch/bend energy:                                     0.00000000
Cation stretch/torsion energy:                                  0.00000000
Cation bend/torsion energy:                                     0.00000000
Cation intra VDW energy:                                        0.00000000
Cation intra charge-charge Coulomb energy:                      0.00000000
Cation intra charge-bonddipole Coulomb energy:                  0.00000000
Cation intra bonddipole-bonddipole Coulomb energy:              0.00000000

Host/Host energy:                                             0.00000000
	Host/Host VDW energy:                                         0.00000000
	Host/Host Coulomb energy:                                     0.00000000
	Host/Host charge-charge Real energy:                          0.00000000
	Host/Host charge-charge Fourier energy:                       0.00000000
	Host/Host charge-bonddipole Real energy:                      0.00000000
	Host/Host charge-bonddipole Fourier energy:                   0.00000000
	Host/Host bondipole-bonddipole Real energy:                   0.00000000
	Host/Host bondipole-bonddipole Fourier energy:                0.00000000

Host/Adsorbate energy:                                        0.00000000
	Host/Adsorbate VDW energy:                                    0.00000000
	Host/Adsorbate Coulomb energy:                                0.00000000
	Host/Adsorbate charge-charge Real energy:                     0.00000000
	Host/Adsorbate charge-charge Fourier energy:                  0.00000000
	Host/Adsorbate charge-bonddipole Real energy:                 0.00000000
	Host/Adsorbate charge-bonddipole Fourier energy:              0.00000000
	Host/Adsorbate bondipole-bonddipole Real energy:              0.00000000
	Host/Adsorbate bondipole-bonddipole Fourier energy:           0.00000000

Host/Cation energy:                                           0.00000000
	Host/Cation VDW energy:                                       0.00000000
	Host/Cation Coulomb energy:                                   0.00000000
	Host/Cation charge-charge Real energy:                        0.00000000
	Host/Cation charge-charge Fourier energy:                     0.00000000
	Host/Cation charge-bonddipole Real energy:                    0.00000000
	Host/Cation charge-bonddipole Fourier energy:                 0.00000000
	Host/Cation bondipole-bonddipole Real energy:                 0.00000000
	Host/Cation bondipole-bonddipole Fourier energy:              0.00000000

Adsorbate/Adsorbate energy:                                        0.00000000
	Adsorbate/Adsorbate VDW energy:                                    0.00000000
	Adsorbate/Adsorbate Coulomb energy:                                0.00000000
	Adsorbate/Adsorbate charge-charge Real energy:                     0.00000000
	Adsorbate/Adsorbate charge-charge Fourier energy:                  0.00000000
	Adsorbate/Adsorbate charge-bonddipole Real energy:                 0.00000000
	Adsorbate/Adsorbate charge-bonddipole Fourier energy:              0.00000000
	Adsorbate/Adsorbate bondipole-bonddipole Real energy:              0.00000000
	Adsorbate/Adsorbate bondipole-bonddipole Fourier energy:           0.00000000

Adsorbate/Cation energy:                                           0.00000000
	Adsorbate/Cation VDW energy:                                       0.00000000
	Adsorbate/Cation Coulomb energy:                                   0.00000000
	Adsorbate/Cation charge-charge Real energy:                        0.00000000
	Adsorbate/Cation charge-charge Fourier energy:                     0.00000000
	Adsorbate/Cation charge-bonddipole Real energy:                    0.00000000
	Adsorbate/Cation charge-bonddipole Fourier energy:                 0.00000000
	Adsorbate/Cation bondipole-bonddipole Real energy:                 0.00000000
	Adsorbate/Cation bondipole-bonddipole Fourier energy:              0.00000000

Cation/Cation energy:                                           0.00000000
	Cation/Cation VDW energy:                                       0.00000000
	Cation/Cation Coulomb energy:                                   0.00000000
	Cation/Cation charge-charge Real energy:                        0.00000000
	Cation/Cation charge-charge Fourier energy:                     0.00000000
	Cation/Cation charge-bonddipole Real energy:                    0.00000000
	Cation/Cation charge-bonddipole Fourier energy:                 0.00000000
	Cation/Cation bondipole-bonddipole Real energy:                 0.00000000
	Cation/Cation bondipole-bonddipole Fourier energy:              0.00000000

Polarization energy:
	Host polarization energy:                                     0.00000000
	Adsorbate polarization energy:                                0.00000000
	Cation polarization energy:                                   0.00000000
	Host back-polarization energy:                                     0.00000000
	Adsorbate back-polarization energy:                                0.00000000
	Cation back-polarization energy:                                   0.00000000

Tail-correction energy:                                       0.00000000

Distance constraints energy:                                  0.00000000
Angle constraints energy:                                     0.00000000
Dihedral constraints energy:                                  0.00000000
Inversion-bend constraints energy:                            0.00000000
Out-of-plane distance constraints energy:                     0.00000000
Exclusion constraints energy:                                 0.00000000

===================================================================
Total energy:     0.000000000000
	Total Van der Waals: 0.000000
	Total Coulomb: 0.000000

	Total Polarization: 0.000000







+++++++++++++++++++++++++++++++++++++++++++++++++++++++++++++++++++++++++
Starting simulation
+++++++++++++++++++++++++++++++++++++++++++++++++++++++++++++++++++++++++

[Init] Current cycle: 0 out of 100000
========================================================================================================

Net charge: 0 (F: 0, A: 0, C: 0)
Current Box:  36.36138   0.00000   0.00000 [A]
               0.00000  31.84059   0.00000 [A]
               0.00000   0.00000  37.92204 [A]
Box-lengths:  36.36138  31.84059  37.92204 Box-angles:   90.00000  90.00000  90.00000 [degrees]
Volume: 43904.91653 [A^3]

Loadings per component:
----------------------------------------------------------------------------------------------------------------------------------------------------
Component 0 (argon), current number of integer/fractional/reaction molecules: 0/0/0, density:   0.00000 [kg/m^3]
	absolute adsorption:   0.00000 [mol/uc],         0.0000 [mol/kg],              0.0000 [mg/g]
	                                                 0.0000 [cm^3 STP/g],          0.0000 [cm^3 STP/cm^3]
	excess adsorption:     0.00000 [mol/uc],         0.0000 [mol/kg],              0.0000 [mg/g]
	                                                 0.0000 [cm^3 STP/g],          0.0000 [cm^3 STP/cm^3]
----------------------------------------------------------------------------------------------------------------------------------------------------
Degrees of freedom: 0 0 0 0
Number of Framework-atoms:   2160
Number of Adsorbates:           0 (0 integer, 0 fractional, 0 reaction)
Number of Cations:              0 (0 integer, 0 fractional, 0 reaction

Current total potential energy:                 0.0000000000 [K]
	Current Host-Host energy:                     0.0000000000 [K]
	Current Host-Adsorbate energy:                0.0000000000 [K]
	Current Host-Cation energy:                   0.0000000000 [K]
	Current Adsorbate-Adsorbate energy:           0.0000000000 [K]
	Current Cation-Cation energy:                 0.0000000000 [K]
	Current Adsorbate-Cation energy:              0.0000000000 [K]



[Init] Current cycle: 1000 out of 100000
========================================================================================================

Net charge: 0 (F: 0, A: 0, C: 0)
Current Box:  36.36138   0.00000   0.00000 [A]
               0.00000  31.84059   0.00000 [A]
               0.00000   0.00000  37.92204 [A]
Box-lengths:  36.36138  31.84059  37.92204 Box-angles:   90.00000  90.00000  90.00000 [degrees]
Volume: 43904.91653 [A^3]

Loadings per component:
----------------------------------------------------------------------------------------------------------------------------------------------------
Component 0 (argon), current number of integer/fractional/reaction molecules: 286/0/0, density: 432.11298 [kg/m^3]
	absolute adsorption:  47.66667 [mol/uc],         6.6111 [mol/kg],            264.0995 [mg/g]
	                                               148.1806 [cm^3 STP/g],        242.4492 [cm^3 STP/cm^3]
	excess adsorption:    47.66667 [mol/uc],         6.6111 [mol/kg],            264.0995 [mg/g]
	                                               148.1806 [cm^3 STP/g],        242.4492 [cm^3 STP/cm^3]
----------------------------------------------------------------------------------------------------------------------------------------------------
Degrees of freedom: 858 0 858 0
Number of Framework-atoms:   2160
Number of Adsorbates:         286 (286 integer, 0 fractional, 0 reaction)
Number of Cations:              0 (0 integer, 0 fractional, 0 reaction

Current total potential energy:           -742415.4945460951 [K]
	Current Host-Host energy:                     0.0000000000 [K]
	Current Host-Adsorbate energy:          -675144.9370191189 [K]
	Current Host-Cation energy:                   0.0000000000 [K]
	Current Adsorbate-Adsorbate energy:      -67270.5575269706 [K]
	Current Cation-Cation energy:                 0.0000000000 [K]
	Current Adsorbate-Cation energy:              0.0000000000 [K]



[Init] Current cycle: 2000 out of 100000
========================================================================================================

Net charge: 0 (F: 0, A: 0, C: 0)
Current Box:  36.36138   0.00000   0.00000 [A]
               0.00000  31.84059   0.00000 [A]
               0.00000   0.00000  37.92204 [A]
Box-lengths:  36.36138  31.84059  37.92204 Box-angles:   90.00000  90.00000  90.00000 [degrees]
Volume: 43904.91653 [A^3]

Loadings per component:
----------------------------------------------------------------------------------------------------------------------------------------------------
Component 0 (argon), current number of integer/fractional/reaction molecules: 295/0/0, density: 445.71094 [kg/m^3]
	absolute adsorption:  49.16667 [mol/uc],         6.8191 [mol/kg],            272.4103 [mg/g]
	                                               152.8437 [cm^3 STP/g],        250.0787 [cm^3 STP/cm^3]
	excess adsorption:    49.16667 [mol/uc],         6.8191 [mol/kg],            272.4103 [mg/g]
	                                               152.8437 [cm^3 STP/g],        250.0787 [cm^3 STP/cm^3]
----------------------------------------------------------------------------------------------------------------------------------------------------
Degrees of freedom: 885 0 885 0
Number of Framework-atoms:   2160
Number of Adsorbates:         295 (295 integer, 0 fractional, 0 reaction)
Number of Cations:              0 (0 integer, 0 fractional, 0 reaction

Current total potential energy:           -761540.8063493825 [K]
	Current Host-Host energy:                     0.0000000000 [K]
	Current Host-Adsorbate energy:          -691446.5014857656 [K]
	Current Host-Cation energy:                   0.0000000000 [K]
	Current Adsorbate-Adsorbate energy:      -70094.3048636096 [K]
	Current Cation-Cation energy:                 0.0000000000 [K]
	Current Adsorbate-Cation energy:              0.0000000000 [K]



[Init] Current cycle: 3000 out of 100000
========================================================================================================

Net charge: 0 (F: 0, A: 0, C: 0)
Current Box:  36.36138   0.00000   0.00000 [A]
               0.00000  31.84059   0.00000 [A]
               0.00000   0.00000  37.92204 [A]
Box-lengths:  36.36138  31.84059  37.92204 Box-angles:   90.00000  90.00000  90.00000 [degrees]
Volume: 43904.91653 [A^3]

Loadings per component:
----------------------------------------------------------------------------------------------------------------------------------------------------
Component 0 (argon), current number of integer/fractional/reaction molecules: 300/0/0, density: 453.26536 [kg/m^3]
	absolute adsorption:  50.00000 [mol/uc],         6.9347 [mol/kg],            277.0274 [mg/g]
	                                               155.4342 [cm^3 STP/g],        254.3174 [cm^3 STP/cm^3]
	excess adsorption:    50.00000 [mol/uc],         6.9347 [mol/kg],            277.0274 [mg/g]
	                                               155.4342 [cm^3 STP/g],        254.3174 [cm^3 STP/cm^3]
----------------------------------------------------------------------------------------------------------------------------------------------------
Degrees of freedom: 900 0 900 0
Number of Framework-atoms:   2160
Number of Adsorbates:         300 (300 integer, 0 fractional, 0 reaction)
Number of Cations:              0 (0 integer, 0 fractional, 0 reaction

Current total potential energy:           -767422.0877695782 [K]
	Current Host-Host energy:                     0.0000000000 [K]
	Current Host-Adsorbate energy:          -698884.8991600098 [K]
	Current Host-Cation energy:                   0.0000000000 [K]
	Current Adsorbate-Adsorbate energy:      -68537.1886095634 [K]
	Current Cation-Cation energy:                 0.0000000000 [K]
	Current Adsorbate-Cation energy:              0.0000000000 [K]



[Init] Current cycle: 4000 out of 100000
========================================================================================================

Net charge: 0 (F: 0, A: 0, C: 0)
Current Box:  36.36138   0.00000   0.00000 [A]
               0.00000  31.84059   0.00000 [A]
               0.00000   0.00000  37.92204 [A]
Box-lengths:  36.36138  31.84059  37.92204 Box-angles:   90.00000  90.00000  90.00000 [degrees]
Volume: 43904.91653 [A^3]

Loadings per component:
----------------------------------------------------------------------------------------------------------------------------------------------------
Component 0 (argon), current number of integer/fractional/reaction molecules: 303/0/0, density: 457.79802 [kg/m^3]
	absolute adsorption:  50.50000 [mol/uc],         7.0040 [mol/kg],            279.7977 [mg/g]
	                                               156.9886 [cm^3 STP/g],        256.8605 [cm^3 STP/cm^3]
	excess adsorption:    50.50000 [mol/uc],         7.0040 [mol/kg],            279.7977 [mg/g]
	                                               156.9886 [cm^3 STP/g],        256.8605 [cm^3 STP/cm^3]
----------------------------------------------------------------------------------------------------------------------------------------------------
Degrees of freedom: 909 0 909 0
Number of Framework-atoms:   2160
Number of Adsorbates:         303 (303 integer, 0 fractional, 0 reaction)
Number of Cations:              0 (0 integer, 0 fractional, 0 reaction

Current total potential energy:           -777896.8360784017 [K]
	Current Host-Host energy:                     0.0000000000 [K]
	Current Host-Adsorbate energy:          -707465.7562775377 [K]
	Current Host-Cation energy:                   0.0000000000 [K]
	Current Adsorbate-Adsorbate energy:      -70431.0798008703 [K]
	Current Cation-Cation energy:                 0.0000000000 [K]
	Current Adsorbate-Cation energy:              0.0000000000 [K]



[Init] Current cycle: 5000 out of 100000
========================================================================================================

Net charge: 0 (F: 0, A: 0, C: 0)
Current Box:  36.36138   0.00000   0.00000 [A]
               0.00000  31.84059   0.00000 [A]
               0.00000   0.00000  37.92204 [A]
Box-lengths:  36.36138  31.84059  37.92204 Box-angles:   90.00000  90.00000  90.00000 [degrees]
Volume: 43904.91653 [A^3]

Loadings per component:
----------------------------------------------------------------------------------------------------------------------------------------------------
Component 0 (argon), current number of integer/fractional/reaction molecules: 309/0/0, density: 466.86332 [kg/m^3]
	absolute adsorption:  51.50000 [mol/uc],         7.1427 [mol/kg],            285.3383 [mg/g]
	                                               160.0973 [cm^3 STP/g],        261.9469 [cm^3 STP/cm^3]
	excess adsorption:    51.50000 [mol/uc],         7.1427 [mol/kg],            285.3383 [mg/g]
	                                               160.0973 [cm^3 STP/g],        261.9469 [cm^3 STP/cm^3]
----------------------------------------------------------------------------------------------------------------------------------------------------
Degrees of freedom: 927 0 927 0
Number of Framework-atoms:   2160
Number of Adsorbates:         309 (309 integer, 0 fractional, 0 reaction)
Number of Cations:              0 (0 integer, 0 fractional, 0 reaction

Current total potential energy:           -786779.5375429206 [K]
	Current Host-Host energy:                     0.0000000000 [K]
	Current Host-Adsorbate energy:          -715573.6424146002 [K]
	Current Host-Cation energy:                   0.0000000000 [K]
	Current Adsorbate-Adsorbate energy:      -71205.8951283345 [K]
	Current Cation-Cation energy:                 0.0000000000 [K]
	Current Adsorbate-Cation energy:              0.0000000000 [K]



[Init] Current cycle: 6000 out of 100000
========================================================================================================

Net charge: 0 (F: 0, A: 0, C: 0)
Current Box:  36.36138   0.00000   0.00000 [A]
               0.00000  31.84059   0.00000 [A]
               0.00000   0.00000  37.92204 [A]
Box-lengths:  36.36138  31.84059  37.92204 Box-angles:   90.00000  90.00000  90.00000 [degrees]
Volume: 43904.91653 [A^3]

Loadings per component:
----------------------------------------------------------------------------------------------------------------------------------------------------
Component 0 (argon), current number of integer/fractional/reaction molecules: 310/0/0, density: 468.37421 [kg/m^3]
	absolute adsorption:  51.66667 [mol/uc],         7.1659 [mol/kg],            286.2617 [mg/g]
	                                               160.6154 [cm^3 STP/g],        262.7946 [cm^3 STP/cm^3]
	excess adsorption:    51.66667 [mol/uc],         7.1659 [mol/kg],            286.2617 [mg/g]
	                                               160.6154 [cm^3 STP/g],        262.7946 [cm^3 STP/cm^3]
----------------------------------------------------------------------------------------------------------------------------------------------------
Degrees of freedom: 930 0 930 0
Number of Framework-atoms:   2160
Number of Adsorbates:         310 (310 integer, 0 fractional, 0 reaction)
Number of Cations:              0 (0 integer, 0 fractional, 0 reaction

Current total potential energy:           -787335.7416142250 [K]
	Current Host-Host energy:                     0.0000000000 [K]
	Current Host-Adsorbate energy:          -715804.7258013922 [K]
	Current Host-Cation energy:                   0.0000000000 [K]
	Current Adsorbate-Adsorbate energy:      -71531.0158128663 [K]
	Current Cation-Cation energy:                 0.0000000000 [K]
	Current Adsorbate-Cation energy:              0.0000000000 [K]



[Init] Current cycle: 7000 out of 100000
========================================================================================================

Net charge: 0 (F: 0, A: 0, C: 0)
Current Box:  36.36138   0.00000   0.00000 [A]
               0.00000  31.84059   0.00000 [A]
               0.00000   0.00000  37.92204 [A]
Box-lengths:  36.36138  31.84059  37.92204 Box-angles:   90.00000  90.00000  90.00000 [degrees]
Volume: 43904.91653 [A^3]

Loadings per component:
----------------------------------------------------------------------------------------------------------------------------------------------------
Component 0 (argon), current number of integer/fractional/reaction molecules: 310/0/0, density: 468.37421 [kg/m^3]
	absolute adsorption:  51.66667 [mol/uc],         7.1659 [mol/kg],            286.2617 [mg/g]
	                                               160.6154 [cm^3 STP/g],        262.7946 [cm^3 STP/cm^3]
	excess adsorption:    51.66667 [mol/uc],         7.1659 [mol/kg],            286.2617 [mg/g]
	                                               160.6154 [cm^3 STP/g],        262.7946 [cm^3 STP/cm^3]
----------------------------------------------------------------------------------------------------------------------------------------------------
Degrees of freedom: 930 0 930 0
Number of Framework-atoms:   2160
Number of Adsorbates:         310 (310 integer, 0 fractional, 0 reaction)
Number of Cations:              0 (0 integer, 0 fractional, 0 reaction

Current total potential energy:           -788548.4829156887 [K]
	Current Host-Host energy:                     0.0000000000 [K]
	Current Host-Adsorbate energy:          -713974.1345609181 [K]
	Current Host-Cation energy:                   0.0000000000 [K]
	Current Adsorbate-Adsorbate energy:      -74574.3483547889 [K]
	Current Cation-Cation energy:                 0.0000000000 [K]
	Current Adsorbate-Cation energy:              0.0000000000 [K]



[Init] Current cycle: 8000 out of 100000
========================================================================================================

Net charge: 0 (F: 0, A: 0, C: 0)
Current Box:  36.36138   0.00000   0.00000 [A]
               0.00000  31.84059   0.00000 [A]
               0.00000   0.00000  37.92204 [A]
Box-lengths:  36.36138  31.84059  37.92204 Box-angles:   90.00000  90.00000  90.00000 [degrees]
Volume: 43904.91653 [A^3]

Loadings per component:
----------------------------------------------------------------------------------------------------------------------------------------------------
Component 0 (argon), current number of integer/fractional/reaction molecules: 312/0/0, density: 471.39598 [kg/m^3]
	absolute adsorption:  52.00000 [mol/uc],         7.2121 [mol/kg],            288.1085 [mg/g]
	                                               161.6516 [cm^3 STP/g],        264.4901 [cm^3 STP/cm^3]
	excess adsorption:    52.00000 [mol/uc],         7.2121 [mol/kg],            288.1085 [mg/g]
	                                               161.6516 [cm^3 STP/g],        264.4901 [cm^3 STP/cm^3]
----------------------------------------------------------------------------------------------------------------------------------------------------
Degrees of freedom: 936 0 936 0
Number of Framework-atoms:   2160
Number of Adsorbates:         312 (312 integer, 0 fractional, 0 reaction)
Number of Cations:              0 (0 integer, 0 fractional, 0 reaction

Current total potential energy:           -795238.6055936546 [K]
	Current Host-Host energy:                     0.0000000000 [K]
	Current Host-Adsorbate energy:          -719042.6686603860 [K]
	Current Host-Cation energy:                   0.0000000000 [K]
	Current Adsorbate-Adsorbate energy:      -76195.9369332884 [K]
	Current Cation-Cation energy:                 0.0000000000 [K]
	Current Adsorbate-Cation energy:              0.0000000000 [K]



[Init] Current cycle: 9000 out of 100000
========================================================================================================

Net charge: 0 (F: 0, A: 0, C: 0)
Current Box:  36.36138   0.00000   0.00000 [A]
               0.00000  31.84059   0.00000 [A]
               0.00000   0.00000  37.92204 [A]
Box-lengths:  36.36138  31.84059  37.92204 Box-angles:   90.00000  90.00000  90.00000 [degrees]
Volume: 43904.91653 [A^3]

Loadings per component:
----------------------------------------------------------------------------------------------------------------------------------------------------
Component 0 (argon), current number of integer/fractional/reaction molecules: 313/0/0, density: 472.90686 [kg/m^3]
	absolute adsorption:  52.16667 [mol/uc],         7.2352 [mol/kg],            289.0320 [mg/g]
	                                               162.1697 [cm^3 STP/g],        265.3378 [cm^3 STP/cm^3]
	excess adsorption:    52.16667 [mol/uc],         7.2352 [mol/kg],            289.0320 [mg/g]
	                                               162.1697 [cm^3 STP/g],        265.3378 [cm^3 STP/cm^3]
----------------------------------------------------------------------------------------------------------------------------------------------------
Degrees of freedom: 939 0 939 0
Number of Framework-atoms:   2160
Number of Adsorbates:         313 (313 integer, 0 fractional, 0 reaction)
Number of Cations:              0 (0 integer, 0 fractional, 0 reaction

Current total potential energy:           -794218.0191361682 [K]
	Current Host-Host energy:                     0.0000000000 [K]
	Current Host-Adsorbate energy:          -719303.5196588648 [K]
	Current Host-Cation energy:                   0.0000000000 [K]
	Current Adsorbate-Adsorbate energy:      -74914.4994773172 [K]
	Current Cation-Cation energy:                 0.0000000000 [K]
	Current Adsorbate-Cation energy:              0.0000000000 [K]



[Init] Current cycle: 10000 out of 100000
========================================================================================================

Net charge: 0 (F: 0, A: 0, C: 0)
Current Box:  36.36138   0.00000   0.00000 [A]
               0.00000  31.84059   0.00000 [A]
               0.00000   0.00000  37.92204 [A]
Box-lengths:  36.36138  31.84059  37.92204 Box-angles:   90.00000  90.00000  90.00000 [degrees]
Volume: 43904.91653 [A^3]

Loadings per component:
----------------------------------------------------------------------------------------------------------------------------------------------------
Component 0 (argon), current number of integer/fractional/reaction molecules: 313/0/0, density: 472.90686 [kg/m^3]
	absolute adsorption:  52.16667 [mol/uc],         7.2352 [mol/kg],            289.0320 [mg/g]
	                                               162.1697 [cm^3 STP/g],        265.3378 [cm^3 STP/cm^3]
	excess adsorption:    52.16667 [mol/uc],         7.2352 [mol/kg],            289.0320 [mg/g]
	                                               162.1697 [cm^3 STP/g],        265.3378 [cm^3 STP/cm^3]
----------------------------------------------------------------------------------------------------------------------------------------------------
Degrees of freedom: 939 0 939 0
Number of Framework-atoms:   2160
Number of Adsorbates:         313 (313 integer, 0 fractional, 0 reaction)
Number of Cations:              0 (0 integer, 0 fractional, 0 reaction

Current total potential energy:           -794244.4441182240 [K]
	Current Host-Host energy:                     0.0000000000 [K]
	Current Host-Adsorbate energy:          -720589.7742918399 [K]
	Current Host-Cation energy:                   0.0000000000 [K]
	Current Adsorbate-Adsorbate energy:      -73654.6698263946 [K]
	Current Cation-Cation energy:                 0.0000000000 [K]
	Current Adsorbate-Cation energy:              0.0000000000 [K]



[Init] Current cycle: 11000 out of 100000
========================================================================================================

Net charge: 0 (F: 0, A: 0, C: 0)
Current Box:  36.36138   0.00000   0.00000 [A]
               0.00000  31.84059   0.00000 [A]
               0.00000   0.00000  37.92204 [A]
Box-lengths:  36.36138  31.84059  37.92204 Box-angles:   90.00000  90.00000  90.00000 [degrees]
Volume: 43904.91653 [A^3]

Loadings per component:
----------------------------------------------------------------------------------------------------------------------------------------------------
Component 0 (argon), current number of integer/fractional/reaction molecules: 315/0/0, density: 475.92863 [kg/m^3]
	absolute adsorption:  52.50000 [mol/uc],         7.2814 [mol/kg],            290.8788 [mg/g]
	                                               163.2059 [cm^3 STP/g],        267.0332 [cm^3 STP/cm^3]
	excess adsorption:    52.50000 [mol/uc],         7.2814 [mol/kg],            290.8788 [mg/g]
	                                               163.2059 [cm^3 STP/g],        267.0332 [cm^3 STP/cm^3]
----------------------------------------------------------------------------------------------------------------------------------------------------
Degrees of freedom: 945 0 945 0
Number of Framework-atoms:   2160
Number of Adsorbates:         315 (315 integer, 0 fractional, 0 reaction)
Number of Cations:              0 (0 integer, 0 fractional, 0 reaction

Current total potential energy:           -796257.8184116898 [K]
	Current Host-Host energy:                     0.0000000000 [K]
	Current Host-Adsorbate energy:          -718799.1104842728 [K]
	Current Host-Cation energy:                   0.0000000000 [K]
	Current Adsorbate-Adsorbate energy:      -77458.7079274408 [K]
	Current Cation-Cation energy:                 0.0000000000 [K]
	Current Adsorbate-Cation energy:              0.0000000000 [K]



[Init] Current cycle: 12000 out of 100000
========================================================================================================

Net charge: 0 (F: 0, A: 0, C: 0)
Current Box:  36.36138   0.00000   0.00000 [A]
               0.00000  31.84059   0.00000 [A]
               0.00000   0.00000  37.92204 [A]
Box-lengths:  36.36138  31.84059  37.92204 Box-angles:   90.00000  90.00000  90.00000 [degrees]
Volume: 43904.91653 [A^3]

Loadings per component:
----------------------------------------------------------------------------------------------------------------------------------------------------
Component 0 (argon), current number of integer/fractional/reaction molecules: 316/0/0, density: 477.43952 [kg/m^3]
	absolute adsorption:  52.66667 [mol/uc],         7.3046 [mol/kg],            291.8022 [mg/g]
	                                               163.7240 [cm^3 STP/g],        267.8810 [cm^3 STP/cm^3]
	excess adsorption:    52.66667 [mol/uc],         7.3046 [mol/kg],            291.8022 [mg/g]
	                                               163.7240 [cm^3 STP/g],        267.8810 [cm^3 STP/cm^3]
----------------------------------------------------------------------------------------------------------------------------------------------------
Degrees of freedom: 948 0 948 0
Number of Framework-atoms:   2160
Number of Adsorbates:         316 (316 integer, 0 fractional, 0 reaction)
Number of Cations:              0 (0 integer, 0 fractional, 0 reaction

Current total potential energy:           -800047.4969108142 [K]
	Current Host-Host energy:                     0.0000000000 [K]
	Current Host-Adsorbate energy:          -723218.7285261150 [K]
	Current Host-Cation energy:                   0.0000000000 [K]
	Current Adsorbate-Adsorbate energy:      -76828.7683847257 [K]
	Current Cation-Cation energy:                 0.0000000000 [K]
	Current Adsorbate-Cation energy:              0.0000000000 [K]



[Init] Current cycle: 13000 out of 100000
========================================================================================================

Net charge: 0 (F: 0, A: 0, C: 0)
Current Box:  36.36138   0.00000   0.00000 [A]
               0.00000  31.84059   0.00000 [A]
               0.00000   0.00000  37.92204 [A]
Box-lengths:  36.36138  31.84059  37.92204 Box-angles:   90.00000  90.00000  90.00000 [degrees]
Volume: 43904.91653 [A^3]

Loadings per component:
----------------------------------------------------------------------------------------------------------------------------------------------------
Component 0 (argon), current number of integer/fractional/reaction molecules: 317/0/0, density: 478.95040 [kg/m^3]
	absolute adsorption:  52.83333 [mol/uc],         7.3277 [mol/kg],            292.7257 [mg/g]
	                                               164.2422 [cm^3 STP/g],        268.7287 [cm^3 STP/cm^3]
	excess adsorption:    52.83333 [mol/uc],         7.3277 [mol/kg],            292.7257 [mg/g]
	                                               164.2422 [cm^3 STP/g],        268.7287 [cm^3 STP/cm^3]
----------------------------------------------------------------------------------------------------------------------------------------------------
Degrees of freedom: 951 0 951 0
Number of Framework-atoms:   2160
Number of Adsorbates:         317 (317 integer, 0 fractional, 0 reaction)
Number of Cations:              0 (0 integer, 0 fractional, 0 reaction

Current total potential energy:           -801222.7769405482 [K]
	Current Host-Host energy:                     0.0000000000 [K]
	Current Host-Adsorbate energy:          -724934.7693279240 [K]
	Current Host-Cation energy:                   0.0000000000 [K]
	Current Adsorbate-Adsorbate energy:      -76288.0076126563 [K]
	Current Cation-Cation energy:                 0.0000000000 [K]
	Current Adsorbate-Cation energy:              0.0000000000 [K]



[Init] Current cycle: 14000 out of 100000
========================================================================================================

Net charge: 0 (F: 0, A: 0, C: 0)
Current Box:  36.36138   0.00000   0.00000 [A]
               0.00000  31.84059   0.00000 [A]
               0.00000   0.00000  37.92204 [A]
Box-lengths:  36.36138  31.84059  37.92204 Box-angles:   90.00000  90.00000  90.00000 [degrees]
Volume: 43904.91653 [A^3]

Loadings per component:
----------------------------------------------------------------------------------------------------------------------------------------------------
Component 0 (argon), current number of integer/fractional/reaction molecules: 317/0/0, density: 478.95040 [kg/m^3]
	absolute adsorption:  52.83333 [mol/uc],         7.3277 [mol/kg],            292.7257 [mg/g]
	                                               164.2422 [cm^3 STP/g],        268.7287 [cm^3 STP/cm^3]
	excess adsorption:    52.83333 [mol/uc],         7.3277 [mol/kg],            292.7257 [mg/g]
	                                               164.2422 [cm^3 STP/g],        268.7287 [cm^3 STP/cm^3]
----------------------------------------------------------------------------------------------------------------------------------------------------
Degrees of freedom: 951 0 951 0
Number of Framework-atoms:   2160
Number of Adsorbates:         317 (317 integer, 0 fractional, 0 reaction)
Number of Cations:              0 (0 integer, 0 fractional, 0 reaction

Current total potential energy:           -801775.9419142744 [K]
	Current Host-Host energy:                     0.0000000000 [K]
	Current Host-Adsorbate energy:          -726258.9682585375 [K]
	Current Host-Cation energy:                   0.0000000000 [K]
	Current Adsorbate-Adsorbate energy:      -75516.9736557617 [K]
	Current Cation-Cation energy:                 0.0000000000 [K]
	Current Adsorbate-Cation energy:              0.0000000000 [K]



[Init] Current cycle: 15000 out of 100000
========================================================================================================

Net charge: 0 (F: 0, A: 0, C: 0)
Current Box:  36.36138   0.00000   0.00000 [A]
               0.00000  31.84059   0.00000 [A]
               0.00000   0.00000  37.92204 [A]
Box-lengths:  36.36138  31.84059  37.92204 Box-angles:   90.00000  90.00000  90.00000 [degrees]
Volume: 43904.91653 [A^3]

Loadings per component:
----------------------------------------------------------------------------------------------------------------------------------------------------
Component 0 (argon), current number of integer/fractional/reaction molecules: 317/0/0, density: 478.95040 [kg/m^3]
	absolute adsorption:  52.83333 [mol/uc],         7.3277 [mol/kg],            292.7257 [mg/g]
	                                               164.2422 [cm^3 STP/g],        268.7287 [cm^3 STP/cm^3]
	excess adsorption:    52.83333 [mol/uc],         7.3277 [mol/kg],            292.7257 [mg/g]
	                                               164.2422 [cm^3 STP/g],        268.7287 [cm^3 STP/cm^3]
----------------------------------------------------------------------------------------------------------------------------------------------------
Degrees of freedom: 951 0 951 0
Number of Framework-atoms:   2160
Number of Adsorbates:         317 (317 integer, 0 fractional, 0 reaction)
Number of Cations:              0 (0 integer, 0 fractional, 0 reaction

Current total potential energy:           -801066.0462811807 [K]
	Current Host-Host energy:                     0.0000000000 [K]
	Current Host-Adsorbate energy:          -726364.8215521303 [K]
	Current Host-Cation energy:                   0.0000000000 [K]
	Current Adsorbate-Adsorbate energy:      -74701.2247290620 [K]
	Current Cation-Cation energy:                 0.0000000000 [K]
	Current Adsorbate-Cation energy:              0.0000000000 [K]



[Init] Current cycle: 16000 out of 100000
========================================================================================================

Net charge: 0 (F: 0, A: 0, C: 0)
Current Box:  36.36138   0.00000   0.00000 [A]
               0.00000  31.84059   0.00000 [A]
               0.00000   0.00000  37.92204 [A]
Box-lengths:  36.36138  31.84059  37.92204 Box-angles:   90.00000  90.00000  90.00000 [degrees]
Volume: 43904.91653 [A^3]

Loadings per component:
----------------------------------------------------------------------------------------------------------------------------------------------------
Component 0 (argon), current number of integer/fractional/reaction molecules: 319/0/0, density: 481.97217 [kg/m^3]
	absolute adsorption:  53.16667 [mol/uc],         7.3739 [mol/kg],            294.5725 [mg/g]
	                                               165.2784 [cm^3 STP/g],        270.4241 [cm^3 STP/cm^3]
	excess adsorption:    53.16667 [mol/uc],         7.3739 [mol/kg],            294.5725 [mg/g]
	                                               165.2784 [cm^3 STP/g],        270.4241 [cm^3 STP/cm^3]
----------------------------------------------------------------------------------------------------------------------------------------------------
Degrees of freedom: 957 0 957 0
Number of Framework-atoms:   2160
Number of Adsorbates:         319 (319 integer, 0 fractional, 0 reaction)
Number of Cations:              0 (0 integer, 0 fractional, 0 reaction

Current total potential energy:           -802578.1098848152 [K]
	Current Host-Host energy:                     0.0000000000 [K]
	Current Host-Adsorbate energy:          -724540.5279531620 [K]
	Current Host-Cation energy:                   0.0000000000 [K]
	Current Adsorbate-Adsorbate energy:      -78037.5819316587 [K]
	Current Cation-Cation energy:                 0.0000000000 [K]
	Current Adsorbate-Cation energy:              0.0000000000 [K]



[Init] Current cycle: 17000 out of 100000
========================================================================================================

Net charge: 0 (F: 0, A: 0, C: 0)
Current Box:  36.36138   0.00000   0.00000 [A]
               0.00000  31.84059   0.00000 [A]
               0.00000   0.00000  37.92204 [A]
Box-lengths:  36.36138  31.84059  37.92204 Box-angles:   90.00000  90.00000  90.00000 [degrees]
Volume: 43904.91653 [A^3]

Loadings per component:
----------------------------------------------------------------------------------------------------------------------------------------------------
Component 0 (argon), current number of integer/fractional/reaction molecules: 321/0/0, density: 484.99394 [kg/m^3]
	absolute adsorption:  53.50000 [mol/uc],         7.4201 [mol/kg],            296.4194 [mg/g]
	                                               166.3146 [cm^3 STP/g],        272.1196 [cm^3 STP/cm^3]
	excess adsorption:    53.50000 [mol/uc],         7.4201 [mol/kg],            296.4194 [mg/g]
	                                               166.3146 [cm^3 STP/g],        272.1196 [cm^3 STP/cm^3]
----------------------------------------------------------------------------------------------------------------------------------------------------
Degrees of freedom: 963 0 963 0
Number of Framework-atoms:   2160
Number of Adsorbates:         321 (321 integer, 0 fractional, 0 reaction)
Number of Cations:              0 (0 integer, 0 fractional, 0 reaction

Current total potential energy:           -806786.7785401242 [K]
	Current Host-Host energy:                     0.0000000000 [K]
	Current Host-Adsorbate energy:          -731078.9359493044 [K]
	Current Host-Cation energy:                   0.0000000000 [K]
	Current Adsorbate-Adsorbate energy:      -75707.8425908149 [K]
	Current Cation-Cation energy:                 0.0000000000 [K]
	Current Adsorbate-Cation energy:              0.0000000000 [K]



[Init] Current cycle: 18000 out of 100000
========================================================================================================

Net charge: 0 (F: 0, A: 0, C: 0)
Current Box:  36.36138   0.00000   0.00000 [A]
               0.00000  31.84059   0.00000 [A]
               0.00000   0.00000  37.92204 [A]
Box-lengths:  36.36138  31.84059  37.92204 Box-angles:   90.00000  90.00000  90.00000 [degrees]
Volume: 43904.91653 [A^3]

Loadings per component:
----------------------------------------------------------------------------------------------------------------------------------------------------
Component 0 (argon), current number of integer/fractional/reaction molecules: 321/0/0, density: 484.99394 [kg/m^3]
	absolute adsorption:  53.50000 [mol/uc],         7.4201 [mol/kg],            296.4194 [mg/g]
	                                               166.3146 [cm^3 STP/g],        272.1196 [cm^3 STP/cm^3]
	excess adsorption:    53.50000 [mol/uc],         7.4201 [mol/kg],            296.4194 [mg/g]
	                                               166.3146 [cm^3 STP/g],        272.1196 [cm^3 STP/cm^3]
----------------------------------------------------------------------------------------------------------------------------------------------------
Degrees of freedom: 963 0 963 0
Number of Framework-atoms:   2160
Number of Adsorbates:         321 (321 integer, 0 fractional, 0 reaction)
Number of Cations:              0 (0 integer, 0 fractional, 0 reaction

Current total potential energy:           -808580.5895011993 [K]
	Current Host-Host energy:                     0.0000000000 [K]
	Current Host-Adsorbate energy:          -731620.4977633022 [K]
	Current Host-Cation energy:                   0.0000000000 [K]
	Current Adsorbate-Adsorbate energy:      -76960.0917378858 [K]
	Current Cation-Cation energy:                 0.0000000000 [K]
	Current Adsorbate-Cation energy:              0.0000000000 [K]



[Init] Current cycle: 19000 out of 100000
========================================================================================================

Net charge: 0 (F: 0, A: 0, C: 0)
Current Box:  36.36138   0.00000   0.00000 [A]
               0.00000  31.84059   0.00000 [A]
               0.00000   0.00000  37.92204 [A]
Box-lengths:  36.36138  31.84059  37.92204 Box-angles:   90.00000  90.00000  90.00000 [degrees]
Volume: 43904.91653 [A^3]

Loadings per component:
----------------------------------------------------------------------------------------------------------------------------------------------------
Component 0 (argon), current number of integer/fractional/reaction molecules: 323/0/0, density: 488.01571 [kg/m^3]
	absolute adsorption:  53.83333 [mol/uc],         7.4664 [mol/kg],            298.2662 [mg/g]
	                                               167.3508 [cm^3 STP/g],        273.8150 [cm^3 STP/cm^3]
	excess adsorption:    53.83333 [mol/uc],         7.4664 [mol/kg],            298.2662 [mg/g]
	                                               167.3508 [cm^3 STP/g],        273.8150 [cm^3 STP/cm^3]
----------------------------------------------------------------------------------------------------------------------------------------------------
Degrees of freedom: 969 0 969 0
Number of Framework-atoms:   2160
Number of Adsorbates:         323 (323 integer, 0 fractional, 0 reaction)
Number of Cations:              0 (0 integer, 0 fractional, 0 reaction

Current total potential energy:           -810597.7605687878 [K]
	Current Host-Host energy:                     0.0000000000 [K]
	Current Host-Adsorbate energy:          -733500.4572364825 [K]
	Current Host-Cation energy:                   0.0000000000 [K]
	Current Adsorbate-Adsorbate energy:      -77097.3033322851 [K]
	Current Cation-Cation energy:                 0.0000000000 [K]
	Current Adsorbate-Cation energy:              0.0000000000 [K]



[Init] Current cycle: 20000 out of 100000
========================================================================================================

Net charge: 0 (F: 0, A: 0, C: 0)
Current Box:  36.36138   0.00000   0.00000 [A]
               0.00000  31.84059   0.00000 [A]
               0.00000   0.00000  37.92204 [A]
Box-lengths:  36.36138  31.84059  37.92204 Box-angles:   90.00000  90.00000  90.00000 [degrees]
Volume: 43904.91653 [A^3]

Loadings per component:
----------------------------------------------------------------------------------------------------------------------------------------------------
Component 0 (argon), current number of integer/fractional/reaction molecules: 323/0/0, density: 488.01571 [kg/m^3]
	absolute adsorption:  53.83333 [mol/uc],         7.4664 [mol/kg],            298.2662 [mg/g]
	                                               167.3508 [cm^3 STP/g],        273.8150 [cm^3 STP/cm^3]
	excess adsorption:    53.83333 [mol/uc],         7.4664 [mol/kg],            298.2662 [mg/g]
	                                               167.3508 [cm^3 STP/g],        273.8150 [cm^3 STP/cm^3]
----------------------------------------------------------------------------------------------------------------------------------------------------
Degrees of freedom: 969 0 969 0
Number of Framework-atoms:   2160
Number of Adsorbates:         323 (323 integer, 0 fractional, 0 reaction)
Number of Cations:              0 (0 integer, 0 fractional, 0 reaction

Current total potential energy:           -811447.9832660065 [K]
	Current Host-Host energy:                     0.0000000000 [K]
	Current Host-Adsorbate energy:          -735237.9538763667 [K]
	Current Host-Cation energy:                   0.0000000000 [K]
	Current Adsorbate-Adsorbate energy:      -76210.0293896197 [K]
	Current Cation-Cation energy:                 0.0000000000 [K]
	Current Adsorbate-Cation energy:              0.0000000000 [K]



[Init] Current cycle: 21000 out of 100000
========================================================================================================

Net charge: 0 (F: 0, A: 0, C: 0)
Current Box:  36.36138   0.00000   0.00000 [A]
               0.00000  31.84059   0.00000 [A]
               0.00000   0.00000  37.92204 [A]
Box-lengths:  36.36138  31.84059  37.92204 Box-angles:   90.00000  90.00000  90.00000 [degrees]
Volume: 43904.91653 [A^3]

Loadings per component:
----------------------------------------------------------------------------------------------------------------------------------------------------
Component 0 (argon), current number of integer/fractional/reaction molecules: 323/0/0, density: 488.01571 [kg/m^3]
	absolute adsorption:  53.83333 [mol/uc],         7.4664 [mol/kg],            298.2662 [mg/g]
	                                               167.3508 [cm^3 STP/g],        273.8150 [cm^3 STP/cm^3]
	excess adsorption:    53.83333 [mol/uc],         7.4664 [mol/kg],            298.2662 [mg/g]
	                                               167.3508 [cm^3 STP/g],        273.8150 [cm^3 STP/cm^3]
----------------------------------------------------------------------------------------------------------------------------------------------------
Degrees of freedom: 969 0 969 0
Number of Framework-atoms:   2160
Number of Adsorbates:         323 (323 integer, 0 fractional, 0 reaction)
Number of Cations:              0 (0 integer, 0 fractional, 0 reaction

Current total potential energy:           -810599.7098958624 [K]
	Current Host-Host energy:                     0.0000000000 [K]
	Current Host-Adsorbate energy:          -731003.3103908881 [K]
	Current Host-Cation energy:                   0.0000000000 [K]
	Current Adsorbate-Adsorbate energy:      -79596.3995049522 [K]
	Current Cation-Cation energy:                 0.0000000000 [K]
	Current Adsorbate-Cation energy:              0.0000000000 [K]



[Init] Current cycle: 22000 out of 100000
========================================================================================================

Net charge: 0 (F: 0, A: 0, C: 0)
Current Box:  36.36138   0.00000   0.00000 [A]
               0.00000  31.84059   0.00000 [A]
               0.00000   0.00000  37.92204 [A]
Box-lengths:  36.36138  31.84059  37.92204 Box-angles:   90.00000  90.00000  90.00000 [degrees]
Volume: 43904.91653 [A^3]

Loadings per component:
----------------------------------------------------------------------------------------------------------------------------------------------------
Component 0 (argon), current number of integer/fractional/reaction molecules: 324/0/0, density: 489.52659 [kg/m^3]
	absolute adsorption:  54.00000 [mol/uc],         7.4895 [mol/kg],            299.1896 [mg/g]
	                                               167.8690 [cm^3 STP/g],        274.6627 [cm^3 STP/cm^3]
	excess adsorption:    54.00000 [mol/uc],         7.4895 [mol/kg],            299.1896 [mg/g]
	                                               167.8690 [cm^3 STP/g],        274.6627 [cm^3 STP/cm^3]
----------------------------------------------------------------------------------------------------------------------------------------------------
Degrees of freedom: 972 0 972 0
Number of Framework-atoms:   2160
Number of Adsorbates:         324 (324 integer, 0 fractional, 0 reaction)
Number of Cations:              0 (0 integer, 0 fractional, 0 reaction

Current total potential energy:           -814229.5879792967 [K]
	Current Host-Host energy:                     0.0000000000 [K]
	Current Host-Adsorbate energy:          -734430.2954437175 [K]
	Current Host-Cation energy:                   0.0000000000 [K]
	Current Adsorbate-Adsorbate energy:      -79799.2925355438 [K]
	Current Cation-Cation energy:                 0.0000000000 [K]
	Current Adsorbate-Cation energy:              0.0000000000 [K]



[...]
	Block[ 1]            0.00000 [K]
	Block[ 2]            0.00000 [K]
	Block[ 3]            0.00000 [K]
	Block[ 4]            0.00000 [K]
	------------------------------------------------------------------------------
	Average              0.00000 [K] +/-            0.00000 [K]

Average Cation Bend angle inversion energy:
===========================================
	Block[ 0]            0.00000 [K]
	Block[ 1]            0.00000 [K]
	Block[ 2]            0.00000 [K]
	Block[ 3]            0.00000 [K]
	Block[ 4]            0.00000 [K]
	------------------------------------------------------------------------------
	Average              0.00000 [K] +/-            0.00000 [K]

Average Cation Torsion energy:
==============================
	Block[ 0]            0.00000 [K]
	Block[ 1]            0.00000 [K]
	Block[ 2]            0.00000 [K]
	Block[ 3]            0.00000 [K]
	Block[ 4]            0.00000 [K]
	------------------------------------------------------------------------------
	Average              0.00000 [K] +/-            0.00000 [K]

Average Cation Improper Torsion energy:
=======================================
	Block[ 0]            0.00000 [K]
	Block[ 1]            0.00000 [K]
	Block[ 2]            0.00000 [K]
	Block[ 3]            0.00000 [K]
	Block[ 4]            0.00000 [K]
	------------------------------------------------------------------------------
	Average              0.00000 [K] +/-            0.00000 [K]

Average Cation Bond-Bond cross term energy:
=================================================
	Block[ 0]            0.00000 [K]
	Block[ 1]            0.00000 [K]
	Block[ 2]            0.00000 [K]
	Block[ 3]            0.00000 [K]
	Block[ 4]            0.00000 [K]
	------------------------------------------------------------------------------
	Average              0.00000 [K] +/-            0.00000 [K]

Average Cation Bend-Bend cross term energy:
===========================================
	Block[ 0]            0.00000 [K]
	Block[ 1]            0.00000 [K]
	Block[ 2]            0.00000 [K]
	Block[ 3]            0.00000 [K]
	Block[ 4]            0.00000 [K]
	------------------------------------------------------------------------------
	Average              0.00000 [K] +/-            0.00000 [K]

Average Cation Bond-Bend cross term energy:
==============================================
	Block[ 0]            0.00000 [K]
	Block[ 1]            0.00000 [K]
	Block[ 2]            0.00000 [K]
	Block[ 3]            0.00000 [K]
	Block[ 4]            0.00000 [K]
	------------------------------------------------------------------------------
	Average              0.00000 [K] +/-            0.00000 [K]

Average Cation Bond-Torsion cross term energy:
==============================================
	Block[ 0]            0.00000 [K]
	Block[ 1]            0.00000 [K]
	Block[ 2]            0.00000 [K]
	Block[ 3]            0.00000 [K]
	Block[ 4]            0.00000 [K]
	------------------------------------------------------------------------------
	Average              0.00000 [K] +/-            0.00000 [K]

Average Cation Bend-Torsion cross term energy:
==============================================
	Block[ 0]            0.00000 [K]
	Block[ 1]            0.00000 [K]
	Block[ 2]            0.00000 [K]
	Block[ 3]            0.00000 [K]
	Block[ 4]            0.00000 [K]
	------------------------------------------------------------------------------
	Average              0.00000 [K] +/-            0.00000 [K]

Average Cation Intra Van der Waals energy:
==========================================
	Block[ 0]            0.00000 [K]
	Block[ 1]            0.00000 [K]
	Block[ 2]            0.00000 [K]
	Block[ 3]            0.00000 [K]
	Block[ 4]            0.00000 [K]
	------------------------------------------------------------------------------
	Average              0.00000 [K] +/-            0.00000 [K]

Average Cation Intra charge-charge Coulomb energy:
====================================
	Block[ 0]            0.00000 [K]
	Block[ 1]            0.00000 [K]
	Block[ 2]            0.00000 [K]
	Block[ 3]            0.00000 [K]
	Block[ 4]            0.00000 [K]
	------------------------------------------------------------------------------
	Average              0.00000 [K] +/-            0.00000 [K]

Average Cation Intra charge-bonddipole Coulomb energy:
====================================
	Block[ 0]            0.00000 [K]
	Block[ 1]            0.00000 [K]
	Block[ 2]            0.00000 [K]
	Block[ 3]            0.00000 [K]
	Block[ 4]            0.00000 [K]
	------------------------------------------------------------------------------
	Average              0.00000 [K] +/-            0.00000 [K]

Average Cation Intra bonddipole-bonddipole Coulomb energy:
====================================
	Block[ 0]            0.00000 [K]
	Block[ 1]            0.00000 [K]
	Block[ 2]            0.00000 [K]
	Block[ 3]            0.00000 [K]
	Block[ 4]            0.00000 [K]
	------------------------------------------------------------------------------
	Average              0.00000 [K] +/-            0.00000 [K]

Average Host-Host energy:
=========================
	Block[ 0] 0.00000            Van der Waals: 0.00000            Coulomb: 0.00000            [K]
	Block[ 1] 0.00000            Van der Waals: 0.00000            Coulomb: 0.00000            [K]
	Block[ 2] 0.00000            Van der Waals: 0.00000            Coulomb: 0.00000            [K]
	Block[ 3] 0.00000            Van der Waals: 0.00000            Coulomb: 0.00000            [K]
	Block[ 4] 0.00000            Van der Waals: 0.00000            Coulomb: 0.00000            [K]
	------------------------------------------------------------------------------
	Average   0.00000            Van der Waals: 0.000000           Coulomb: 0.00000            [K]
	      +/- 0.00000                       +/- 0.000000                +/- 0.00000            [K]

Average Adsorbate-Adsorbate energy:
===================================
	Block[ 0] -80399.38565       Van der Waals: -80399.38565       Coulomb: 0.00000            [K]
	Block[ 1] -80059.99598       Van der Waals: -80059.99598       Coulomb: 0.00000            [K]
	Block[ 2] -80730.85756       Van der Waals: -80730.85756       Coulomb: 0.00000            [K]
	Block[ 3] -79410.00969       Van der Waals: -79410.00969       Coulomb: 0.00000            [K]
	Block[ 4] -80465.08198       Van der Waals: -80465.08198       Coulomb: 0.00000            [K]
	------------------------------------------------------------------------------
	Average   -80213.06617       Van der Waals: -80213.066171      Coulomb: 0.00000            [K]
	      +/- 909.79779                     +/- 909.797794              +/- 0.00000            [K]

Average Cation-Cation energy:
=============================
	Block[ 0] 0.00000            Van der Waals: 0.00000            Coulomb: 0.00000            [K]
	Block[ 1] 0.00000            Van der Waals: 0.00000            Coulomb: 0.00000            [K]
	Block[ 2] 0.00000            Van der Waals: 0.00000            Coulomb: 0.00000            [K]
	Block[ 3] 0.00000            Van der Waals: 0.00000            Coulomb: 0.00000            [K]
	Block[ 4] 0.00000            Van der Waals: 0.00000            Coulomb: 0.00000            [K]
	------------------------------------------------------------------------------
	Average   0.00000            Van der Waals: 0.000000           Coulomb: 0.00000            [K]
	      +/- 0.00000                       +/- 0.000000                +/- 0.00000            [K]

Average Host-Adsorbate energy:
==============================
	Block[ 0] -757695.56652      Van der Waals: -757695.56652      Coulomb: 0.00000            [K]
	Block[ 1] -760872.64262      Van der Waals: -760872.64262      Coulomb: 0.00000            [K]
	Block[ 2] -759718.97066      Van der Waals: -759718.97066      Coulomb: 0.00000            [K]
	Block[ 3] -760256.11261      Van der Waals: -760256.11261      Coulomb: 0.00000            [K]
	Block[ 4] -759705.48699      Van der Waals: -759705.48699      Coulomb: 0.00000            [K]
	------------------------------------------------------------------------------
	Average   -759649.75588      Van der Waals: -759649.755880     Coulomb: 0.00000            [K]
	      +/- 2133.51787                    +/- 2133.517875             +/- 0.00000            [K]

Average Host-Cation energy:
===========================
	Block[ 0] 0.00000            Van der Waals: 0.00000            Coulomb: 0.00000            [K]
	Block[ 1] 0.00000            Van der Waals: 0.00000            Coulomb: 0.00000            [K]
	Block[ 2] 0.00000            Van der Waals: 0.00000            Coulomb: 0.00000            [K]
	Block[ 3] 0.00000            Van der Waals: 0.00000            Coulomb: 0.00000            [K]
	Block[ 4] 0.00000            Van der Waals: 0.00000            Coulomb: 0.00000            [K]
	------------------------------------------------------------------------------
	Average   0.00000            Van der Waals: 0.000000           Coulomb: 0.00000            [K]
	      +/- 0.00000                       +/- 0.000000                +/- 0.00000            [K]

Average Adsorbate-Cation energy:
================================
	Block[ 0] 0.00000            Van der Waals: 0.00000            Coulomb: 0.00000            [K]
	Block[ 1] 0.00000            Van der Waals: 0.00000            Coulomb: 0.00000            [K]
	Block[ 2] 0.00000            Van der Waals: 0.00000            Coulomb: 0.00000            [K]
	Block[ 3] 0.00000            Van der Waals: 0.00000            Coulomb: 0.00000            [K]
	Block[ 4] 0.00000            Van der Waals: 0.00000            Coulomb: 0.00000            [K]
	------------------------------------------------------------------------------
	Average   0.00000            Van der Waals: 0.000000           Coulomb: 0.00000            [K]
	      +/- 0.00000                       +/- 0.000000                +/- 0.00000            [K]

Host polarization energy:
=======================
	Block[ 0]            0.00000 [K]
	Block[ 1]            0.00000 [K]
	Block[ 2]            0.00000 [K]
	Block[ 3]            0.00000 [K]
	Block[ 4]            0.00000 [K]
	------------------------------------------------------------------------------
	Average              0.00000 [K] +/-            0.00000 [K]

Adsorbate polarization energy:
=======================
	Block[ 0]            0.00000 [K]
	Block[ 1]            0.00000 [K]
	Block[ 2]            0.00000 [K]
	Block[ 3]            0.00000 [K]
	Block[ 4]            0.00000 [K]
	------------------------------------------------------------------------------
	Average              0.00000 [K] +/-            0.00000 [K]

Cation polarization energy:
=======================
	Block[ 0]            0.00000 [K]
	Block[ 1]            0.00000 [K]
	Block[ 2]            0.00000 [K]
	Block[ 3]            0.00000 [K]
	Block[ 4]            0.00000 [K]
	------------------------------------------------------------------------------
	Average              0.00000 [K] +/-            0.00000 [K]

Host back-polarization energy:
=======================
	Block[ 0]            0.00000 [K]
	Block[ 1]            0.00000 [K]
	Block[ 2]            0.00000 [K]
	Block[ 3]            0.00000 [K]
	Block[ 4]            0.00000 [K]
	------------------------------------------------------------------------------
	Average              0.00000 [K] +/-            0.00000 [K]

Adsorbate back-polarization energy:
=======================
	Block[ 0]            0.00000 [K]
	Block[ 1]            0.00000 [K]
	Block[ 2]            0.00000 [K]
	Block[ 3]            0.00000 [K]
	Block[ 4]            0.00000 [K]
	------------------------------------------------------------------------------
	Average              0.00000 [K] +/-            0.00000 [K]

Cation back-polarization energy:
=======================
	Block[ 0]            0.00000 [K]
	Block[ 1]            0.00000 [K]
	Block[ 2]            0.00000 [K]
	Block[ 3]            0.00000 [K]
	Block[ 4]            0.00000 [K]
	------------------------------------------------------------------------------
	Average              0.00000 [K] +/-            0.00000 [K]

Tail-correction energy:
=======================
	Block[ 0]            0.00000 [K]
	Block[ 1]            0.00000 [K]
	Block[ 2]            0.00000 [K]
	Block[ 3]            0.00000 [K]
	Block[ 4]            0.00000 [K]
	------------------------------------------------------------------------------
	Average              0.00000 [K] +/-            0.00000 [K]

Distance-constraints energy:
=======================
	Block[ 0]            0.00000 [K]
	Block[ 1]            0.00000 [K]
	Block[ 2]            0.00000 [K]
	Block[ 3]            0.00000 [K]
	Block[ 4]            0.00000 [K]
	------------------------------------------------------------------------------
	Average              0.00000 [K] +/-            0.00000 [K]

Angle-constraints energy:
=======================
	Block[ 0]            0.00000 [K]
	Block[ 1]            0.00000 [K]
	Block[ 2]            0.00000 [K]
	Block[ 3]            0.00000 [K]
	Block[ 4]            0.00000 [K]
	------------------------------------------------------------------------------
	Average              0.00000 [K] +/-            0.00000 [K]

Dihedral-constraints energy:
=======================
	Block[ 0]            0.00000 [K]
	Block[ 1]            0.00000 [K]
	Block[ 2]            0.00000 [K]
	Block[ 3]            0.00000 [K]
	Block[ 4]            0.00000 [K]
	------------------------------------------------------------------------------
	Average              0.00000 [K] +/-            0.00000 [K]

Inversion-bend constraints energy:
=======================
	Block[ 0]            0.00000 [K]
	Block[ 1]            0.00000 [K]
	Block[ 2]            0.00000 [K]
	Block[ 3]            0.00000 [K]
	Block[ 4]            0.00000 [K]
	------------------------------------------------------------------------------
	Average              0.00000 [K] +/-            0.00000 [K]

Out-of-plane-distance constraints energy:
=======================
	Block[ 0]            0.00000 [K]
	Block[ 1]            0.00000 [K]
	Block[ 2]            0.00000 [K]
	Block[ 3]            0.00000 [K]
	Block[ 4]            0.00000 [K]
	------------------------------------------------------------------------------
	Average              0.00000 [K] +/-            0.00000 [K]

Exclusion-constraints energy:
=======================
	Block[ 0]            0.00000 [K]
	Block[ 1]            0.00000 [K]
	Block[ 2]            0.00000 [K]
	Block[ 3]            0.00000 [K]
	Block[ 4]            0.00000 [K]
	------------------------------------------------------------------------------
	Average              0.00000 [K] +/-            0.00000 [K]

Total energy:
=============
	Block[ 0]      -838094.95217 [K]
	Block[ 1]      -840932.63860 [K]
	Block[ 2]      -840449.82822 [K]
	Block[ 3]      -839666.12230 [K]
	Block[ 4]      -840170.56896 [K]
	------------------------------------------------------------------------------
	Average        -839862.82205 [K] +/-         1948.91694 [K]

Number of molecules:
====================

Component 0 [argon]
-------------------------------------------------------------
	Block[ 0] 339.60255          [-]
	Block[ 1] 341.22085          [-]
	Block[ 2] 340.79480          [-]
	Block[ 3] 340.25925          [-]
	Block[ 4] 340.46635          [-]
	------------------------------------------------------------------------------
	Average                                    340.4687600000 +/-       1.0830185454 [-]
	Average loading absolute [molecules/unit cell]       56.7447933333 +/-       0.1805030909 [-]
	Average loading absolute [mol/kg framework]          7.8701637163 +/-       0.0250347000 [-]
	Average loading absolute [milligram/gram framework]        314.3973001377 +/-       1.0000861949 [-]
	Average loading absolute [cm^3 (STP)/gr framework]        176.4016586662 +/-       0.5611271583 [-]
	Average loading absolute [cm^3 (STP)/cm^3 framework]        288.6237196639 +/-       0.9181013877 [-]

	Block[ 0] 339.60255          [-]
	Block[ 1] 341.22085          [-]
	Block[ 2] 340.79480          [-]
	Block[ 3] 340.25925          [-]
	Block[ 4] 340.46635          [-]
	------------------------------------------------------------------------------
	Average                                    340.4687600000 +/-       1.0830185454 [-]
	Average loading excess [molecules/unit cell]       56.7447933333 +/-       0.1805030909 [-]
	Average loading excess [mol/kg framework]          7.8701637163 +/-       0.0250347000 [-]
	Average loading excess [milligram/gram framework]        314.3973001377 +/-       1.0000861949 [-]
	Average loading excess [cm^3 (STP)/gr framework]        176.4016586662 +/-       0.5611271583 [-]
	Average loading excess [cm^3 (STP)/cm^3 framework]        288.6237196639 +/-       0.9181013877 [-]


Average Widom Rosenbluth factor:
================================
	Block[ 0] 0 [-]
	Block[ 1] 0 [-]
	Block[ 2] 0 [-]
	Block[ 3] 0 [-]
	Block[ 4] 0 [-]
	------------------------------------------------------------------------------
	[argon] Average Widom Rosenbluth-weight:   0 +/- 0.000000 [-]

Average Widom chemical potential:
=================================
	Block[ 0] 0 [-]
	Block[ 1] 0 [-]
	Block[ 2] 0 [-]
	Block[ 3] 0 [-]
	Block[ 4] 0 [-]
	------------------------------------------------------------------------------
	[argon] Average chemical potential:   0 +/- 0.000000 [K]

Average Widom Ideal-gas contribution:
=====================================
	Block[ 0] 0 [-]
	Block[ 1] 0 [-]
	Block[ 2] 0 [-]
	Block[ 3] 0 [-]
	Block[ 4] 0 [-]
	------------------------------------------------------------------------------
	[argon] Average Widom Ideal-gas chemical potential:   0 +/- 0.000000 [-]

Average Widom excess contribution:
==================================
	Block[ 0] 0 [-]
	Block[ 1] 0 [-]
	Block[ 2] 0 [-]
	Block[ 3] 0 [-]
	Block[ 4] 0 [-]
	------------------------------------------------------------------------------
	[argon] Average Widom excess chemical potential:   0 +/- 0.000000 [-]

Average Gibbs Widom Rosenbluth factor:
======================================
	Block[ 0] 0 [-]
	Block[ 1] 0 [-]
	Block[ 2] 0 [-]
	Block[ 3] 0 [-]
	Block[ 4] 0 [-]
	------------------------------------------------------------------------------
	[argon] Average Gibbs Widom Rosenbluth-weight:   0 +/- 0.000000 [-]

Average Gibbs Widom chemical potential:
=======================================
	Block[ 0] 0 [-]
	Block[ 1] 0 [-]
	Block[ 2] 0 [-]
	Block[ 3] 0 [-]
	Block[ 4] 0 [-]
	------------------------------------------------------------------------------
	[argon] Average Gibbs chemical potential:   0 +/- 0.000000 [K]

Average Gibbs Widom Ideal-gas contribution:
===========================================
	Block[ 0] 0 [-]
	Block[ 1] 0 [-]
	Block[ 2] 0 [-]
	Block[ 3] 0 [-]
	Block[ 4] 0 [-]
	------------------------------------------------------------------------------
	[argon] Average Gibbs Ideal-gas chemical potential:   0 +/- 0.000000 [-]

Average Gibbs Widom excess contribution:
===========================================
	Block[ 0] 0 [-]
	Block[ 1] 0 [-]
	Block[ 2] 0 [-]
	Block[ 3] 0 [-]
	Block[ 4] 0 [-]
	------------------------------------------------------------------------------
	[argon] Average Gibbs excess chemical potential:   0 +/- 0.000000 [-]

Average Henry coefficient:
==========================
	Block[ 0] 0 [mol/kg/Pa]
	Block[ 1] 0 [mol/kg/Pa]
	Block[ 2] 0 [mol/kg/Pa]
	Block[ 3] 0 [mol/kg/Pa]
	Block[ 4] 0 [mol/kg/Pa]
	------------------------------------------------------------------------------
	[argon] Average Henry coefficient:  0 +/- 0 [mol/kg/Pa]

Average adsorption energy <U_gh>_1-<U_h>_0 obtained from Widom-insertion:
(Note: the total heat of adsorption is dH=<U_gh>_1-<U_h>_0 - <U_g> - RT)
=========================================================================

Simulation finished,  0 warnings


Mon Jun  7 20:26:14 2021
Simulation finished on Monday, June 07.
The end time was 08:26 PM.

