Compiler and run-time data
===========================================================================
RASPA 2.0.37
Compiled as a 64-bits application
Compiler: gcc Intel(R) C++ gcc 4.8.5 mode
Compile Date = May 12 2020, Compile Time = 18:40:55

Sun Jun  6 21:32:42 2021
Simulation started on Sunday, June 06.
The start time was 09:32 PM.

Hostname:    The start time was 09:32 PM.
OS type:     The start time was 09:32 PM.
OS release:  The start time was 09:32 PM.
OS version:  The start time was 09:32 PM.

Simulation
===========================================================================
Dimensions: 3
Random number seed: 1623011560
RASPA directory set to: /mnt/iusers01/ceas01/m86397ah/Installed_software/RASPA
String appended to output-files: 
Number of cycles: 100000
Number of initializing cycles: 100000
Number of equilibration cycles: 0
Print every: 1000
Triclinic boundary condition applied
Timestep: 0.000500
	Degrees of freedom:                        0
	Translational Degrees of freedom:          0
	Rotational Degrees of freedom:             0
	Degrees of freedom Framework:              0


Mutual consistent basic set of units:
======================================
Unit of temperature: Kelvin
Unit of length:      1e-10 [m]
Unit of time:        1e-12 [s]
Unit of mass:        1.66054e-27 [kg]
Unit of charge:      1.60218e-19 [C/particle]

Derived units and their conversion factors:
===========================================
Unit of energy:              1.66054e-23 [J]
Unit of force:               1.66054e-13 [N]
Unit of pressure:            1.66054e+07 [Pa]
Unit of velocity:            100 [m/s]
Unit of acceleration:        1e-08 [m^2/s]
Unit of diffusion:           1e-08 [m^2/s]
Unit of dipole moment:       1.60218e-29 [C.m]
Unit of electric potential:  0.000103643 [V]
Unit of electric field:      1.03643e+06 [V]
Unit of polarizability:      1.54587e-35 [-]
Unit of Coulomb potential:   167101.0800066561  [K]
Unit of dielectric constant: 0.0000154587       [s^2 C^2/(kg m^3)]
Unit of wave vectors:        5.3088374589       [cm^1]
Boltzmann constant:          0.8314464919       [-]

Internal conversion factors:
===========================================
Energy to Kelvin:                                    1.2027242847
FH correction factor                                 2.0211930949
Heat capacity conversion factor:                    10.0000088723
From Debye to internal units:                        4.8032067991
Isothermal compressibility conversion factor:        0.0000000602

Energy conversion factors:
===========================================
From mdyne/A to kcal/mol/A^2:           143.933
From mdyne/A to kj/mol/A^2:             602.214
From mdyne/A to K/A^2:                  72429.7
From mdyne A/rad^2 to kcal/mol/deg^2:   0.0438444


Properties computed
===========================================================================
Movies: yes
	Movie snapshots are appended to file every 1000 cycles
Radial Distribution Function: no
Number of molecules GCMC histogram: no
Histogram of the molecule positions: no
Free energy profiles: no
Pore Size Distribution Function: no
End-to-end distance: no
Histogram of the energy of the system: no
Compute thermodynamic factors: no
Framework spacing histograms: no
Residence times histograms: no
Distance histograms: no
Bend Angle histograms: no
Dihedral angle histograms: no
Angle between planes histograms: no
Molecule properties: no
Infra-red spectra: no
Mean-squared displacement using modified order-N algorithm: no
Velocity-autocorrelation function modified order-N algorithm: no
Rotational velocity-autocorrelation function modified order-N algorithm: no
Molecular orientation-autocorrelation function modified order-N algorithm: no
Bond orientation-autocorrelation function modified order-N algorithm: no
Mean-squared displacement (conventional algorithm): no
Velocity-autocorrelation function (conventional algorithm): no
3D density grid for adsorbates: no
Compute cation an/or adsorption sites: no
dcTST snapshots: no
Compute pressure and stress: no


VTK
===========================================================================
VTK fractional-range position framework atoms: [-0.001000,1.001000] [-0.001000,1.001000] [-0.001000,1.001000]
VTK fractional-range position framework bonds: [-0.151000,1.151000] [-0.151000,1.151000] [-0.151000,1.151000]
VTK fractional-range com-position adsorbate molecules: [-0.101000,1.101000] [-0.101000,1.101000] [-0.101000,1.101000]
VTK fractional-range com-position cation molecules: [-0.101000,1.101000] [-0.101000,1.101000] [-0.101000,1.101000]
	3D free energy grid made for the full simulation-cell


Thermo/Baro-stat NHC parameters
===========================================================================
External temperature: 87 [K]
Beta: 0.0138244 [energy unit]
External Pressure: 101325 [Pa]


Thermostat chain-length: 3
Timescale parameter for thermostat: 0.150000 [ps]
Barostat chain-length:   3
Timescale parameter for barostat:   0.150000 [ps]

Number of Yoshida-Suzuki decomposition steps: 5
Number of respa steps: 5


Method and settings for electrostatics
===============================================================================
Dielectric constant of the medium : 1.000000
Charge from charge-equilibration: no
Ewald summation is used (exact solution of a periodic system)
Relative precision                : 1e-06
Alpha convergence parameter       : 0.265058
kvec (x,y,z)                      : 11 11 11


CFC-RXMC parameters
===========================================================================
Number of reactions: 0


Rattle parameters
===========================================================================
Distance constraint type: r^2-r^2_0
Bend angle constraint type: theta-theta_0
Dihedral angle constraint type: phi-phi_0
Inversion-bend angle constraint type: chi-chi_0
Out-of-plane distance constraint type: r-r_0


Spectra parameters
===========================================================================
Compute normal modes: no


Minimization parameters
===========================================================================
Generalized coordinates are: Cartesian center-of-mass, elements of the orientational matrix p1,p2,p3 and strain
Potential derivatives are evaluated: analytically
Translation of the system is removed from the generalized Hessian: no
Rotation of the system is removed from the generalized Hessian: no
Maximum step-length: 0.3
Convergence factor: 1
Maximum number of minimization steps: 10000
Use gradients in the line-minimizations: yes
RMS gradient tolerance: 1e-06
Maximum gradient tolerance: 1e-06

Distance constraints: 0
Angle constraints: 0
Dihedral constraints: 0

Improper dihedral constraints: 0

Inversion-bend constraints: 0

Out-of-plane constraints: 0

Harmonic distance constraints: 0
Harmonic angle constraints: 0
Harmonic dihedral constraints: 0

Dihedral mid-point measurements: 0

All framework atoms are fixed

Fixed adsorbate atoms:  
Fixed adsorbate groups (center-of-mass):  
Fixed adsorbate groups (orientation):  

Fixed cation atoms:  
Fixed cation groups (center-of-mass):  
Fixed cation groups (orientation):  


dcTST parameters
===========================================================================
Free energy profiles computed: no
Free energy profiles written every 5000 cycles
Free energy mapping: mapped to a,b,c-coordinates
BarrierPosition:       0.0000000000       0.0000000000       0.0000000000
BarrierNormal:         0.0000000000       0.0000000000       0.0000000000
Start with a molecule on top of the barrier: no
Maximum distance to barrier (e.g. distance to minumum free energy):       0.0000000000 [A]
Maximum trajectory time:      10.0000000000 [ps]
Each configuration is used with 5 different initial velocities


Cbmc parameters
===========================================================================
Biasing method: using only the VDW part
Number of trial positions:                                       10
Number of trial positions (reinsertion):                         10
Number of trial positions (partial reinsertion):                 10
Number of trial positions (identity-change):                     10
Number of trial positions (Gibbs particle transfer):             10
Number of trial positions (insertion/deletion):                  10
Number of trial positions (Widom insertion):                     10
Number of trial positions coupled Torsion-selection:             100
Number of trial positions first bead:                            10
Number of trial positions first bead (reinsertion):              10
Number of trial positions first bead (partial reinsertion):      10
Number of trial positions first bead (identity-change):          10
Number of trial positions first bead (Gibbs particle transfer):  10
Number of trial positions first bead (insertion/deletion):       10
Number of trial positions first bead (Widom insertion):          10
Number of trial moves per open bead:                             150
Target acceptance ratio small-mc scheme:                         0.400000
Energy overlap criteria:                                         1e+07
Minimal Rosenbluth factor:                                       1e-150


Pseudo atoms: 7
===========================================================================
Pseudo Atom[   0] Name UNIT     Oxidation:          Element: H    pdb-name: H    Scat. Types:   1   1 Mass=1.000000000  B-factor:0.000   
                 Charge=1.000000000          Polarization=0.000000000  [A^3] (considered a charged atom and no polarization)  Interactions: yes
                 Anisotropic factor:    0.000 [-] (Absolute), Radius:    1.000 [A], Framework-atom:  no
Pseudo Atom[   1] Name DUMMY    Oxidation: +0       Element: H    pdb-name: H    Scat. Types:   1   1 Mass=1.000000000  B-factor:1.000   
                 Charge=0.000000000          Polarization=0.000000000  [A^3] (considered a chargeless atom and no polarization)  Interactions:  no
                 Anisotropic factor:    0.000 [-] (Absolute), Radius:    1.000 [A], Framework-atom:  no
Pseudo Atom[   2] Name He       Oxidation: +0       Element: He   pdb-name: He   Scat. Types:   3   2 Mass=4.002602000  B-factor:1.000   
                 Charge=0.000000000          Polarization=0.000000000  [A^3] (considered a chargeless atom and no polarization)  Interactions: yes
                 Anisotropic factor:    0.000 [-] (Absolute), Radius:    1.000 [A], Framework-atom:  no
Pseudo Atom[   3] Name Ar       Oxidation: +0       Element: Ar   pdb-name: Ar   Scat. Types:  19  18 Mass=39.948000000 B-factor:1.000   
                 Charge=0.000000000          Polarization=0.000000000  [A^3] (considered a chargeless atom and no polarization)  Interactions: yes
                 Anisotropic factor:    0.000 [-] (Absolute), Radius:    1.000 [A], Framework-atom:  no
Pseudo Atom[   4] Name T        Oxidation: +0       Element: Si   pdb-name: Si   Scat. Types:  15  14 Mass=28.085500000 B-factor:1.000   
                 Charge=0.000000000          Polarization=0.000000000  [A^3] (considered a chargeless atom and no polarization)  Interactions: yes
                 Anisotropic factor:    0.000 [-] (Absolute), Radius:    1.180 [A], Framework-atom: yes (charge from pseudo-atoms file)
Pseudo Atom[   5] Name Al       Oxidation: +0       Element: Al   pdb-name: Al   Scat. Types:  14  13 Mass=26.981539000 B-factor:1.000   
                 Charge=0.000000000          Polarization=0.000000000  [A^3] (considered a chargeless atom and no polarization)  Interactions: yes
                 Anisotropic factor:    0.000 [-] (Absolute), Radius:    1.180 [A], Framework-atom:  no
Pseudo Atom[   6] Name O        Oxidation: +0       Element: O    pdb-name: O    Scat. Types:   9   8 Mass=15.999400000 B-factor:1.000   
                 Charge=0.000000000          Polarization=0.000000000  [A^3] (considered a chargeless atom and no polarization)  Interactions: yes
                 Anisotropic factor:    0.000 [-] (Absolute), Radius:    0.500 [A], Framework-atom: yes (charge from pseudo-atoms file)


Forcefield: local
===========================================================================
Minimal distance: 1
CutOff VDW : 12.800000 (163.840000)
CutOff VDW switching on: 11.520000 (132.710400)
CutOff charge-charge : 12.000000 (144.000000)
CutOff charge-charge switching on: 7.800000 (60.840000)
CutOff charge-bonddipole : 12.000000 (144.000000)
CutOff charge-bondipole switching on: 8.400000 (70.560000)
CutOff bonddipole-bonddipole : 12.000000 (144.000000)
CutOff bonddipole-bondipole switching on: 9.000000 (81.000000)
Polarization is neglected
All potentials are unshifted !!!!!!

General mixing rule: Lorentz-Berthelot mixing rules are used FIRST for cross terms
0 cross terms are overwritten using the individual mixing rules from the file 'force_field_mixing_rules.def'
and then 0 terms are overwritten using the specific interactions from the file 'force_field.def'

The force field and all the interactions:
     He -      He [LENNARD_JONES] p_0/k_B:  10.22000 [K], p_1: 2.58000 [A], shift/k_B:   0.00000000 [K], tailcorrection: no
     He -      Ar [LENNARD_JONES] p_0/k_B:  34.99080 [K], p_1: 2.99000 [A], shift/k_B:   0.00000000 [K], tailcorrection: no
     He -       T [LENNARD_JONES] p_0/k_B:  45.45298 [K], p_1: 3.20300 [A], shift/k_B:   0.00000000 [K], tailcorrection: no
     He -      Al [LENNARD_JONES] p_0/k_B:  50.94376 [K], p_1: 3.29400 [A], shift/k_B:   0.00000000 [K], tailcorrection: no
     He -       O [LENNARD_JONES] p_0/k_B:  17.56827 [K], p_1: 2.84900 [A], shift/k_B:   0.00000000 [K], tailcorrection: no
     Ar -      Ar [LENNARD_JONES] p_0/k_B: 119.80000 [K], p_1: 3.40000 [A], shift/k_B:   0.00000000 [K], tailcorrection: no
     Ar -       T [LENNARD_JONES] p_0/k_B: 155.61995 [K], p_1: 3.61300 [A], shift/k_B:   0.00000000 [K], tailcorrection: no
     Ar -      Al [LENNARD_JONES] p_0/k_B: 174.41907 [K], p_1: 3.70400 [A], shift/k_B:   0.00000000 [K], tailcorrection: no
     Ar -       O [LENNARD_JONES] p_0/k_B:  60.14948 [K], p_1: 3.25900 [A], shift/k_B:   0.00000000 [K], tailcorrection: no
      T -       T [LENNARD_JONES] p_0/k_B: 202.15000 [K], p_1: 3.82600 [A], shift/k_B:   0.00000000 [K], tailcorrection: no
      T -      Al [LENNARD_JONES] p_0/k_B: 226.57001 [K], p_1: 3.91700 [A], shift/k_B:   0.00000000 [K], tailcorrection: no
      T -       O [LENNARD_JONES] p_0/k_B:  78.13405 [K], p_1: 3.47200 [A], shift/k_B:   0.00000000 [K], tailcorrection: no
     Al -      Al [LENNARD_JONES] p_0/k_B: 253.94000 [K], p_1: 4.00800 [A], shift/k_B:   0.00000000 [K], tailcorrection: no
     Al -       O [LENNARD_JONES] p_0/k_B:  87.57276 [K], p_1: 3.56300 [A], shift/k_B:   0.00000000 [K], tailcorrection: no
      O -       O [LENNARD_JONES] p_0/k_B:  30.20000 [K], p_1: 3.11800 [A], shift/k_B:   0.00000000 [K], tailcorrection: no


MoleculeDefinitions:
===========================================================================
Component 0 [argon] (Adsorbate molecule)

	MoleculeDefinitions: argon
	Component contains no atoms with charge
	Component contains no atoms with point dipoles (polarization)
	Component has a net charge of 0.000000

	Ideal chain Rosenbluth weight: 1
	Ideal chain total energy: 0.000000

	Critical temparure [K]: 154.580000
	Critical pressure [Pa]: 5043000.000000
	Acentric factor [-]: 0.000000

	RXMC partition factor ln(q/V) [ln(A^(-3))]:       0.0000000000

	Liquid=stable, Vapour=metastable

	MolFraction:           1.0000000000 [-]
	Compressibility:       0.0034503778 [-]

	Density of the bulk fluid phase:    1621.7781374247 [kg/m^3]

	Binary mixture EOS parameters:  (0): 0.000000

	Amount of excess molecules:       0.0000000000 [-]

	Conversion factor molecules/unit cell -> mol/kg:       0.1223770798 [-]
	Conversion factor molecules/unit cell -> mg/g:       4.8887195843 [-]
	Conversion factor molecules/unit cell -> cm^3 STP/gr:       2.7429568989 [-]
	Conversion factor molecules/unit cell -> cm^3 STP/cm^3:       4.6994810854 [-]
	Conversion factor mol/kg -> cm^3 STP/gr:      22.4139757476 [-]
	Conversion factor mol/kg -> cm^3 STP/cm^3:      38.4016442675 [-]

	Partial pressure:    101325.00000000000000 [Pa]
	                        759.93750000000000 [Torr]
	                          1.01325000000000 [bar]
	                          1.00000000000000 [atm]

	Fugacity coefficient:       1.0000000000 [-]

	Partial fugacity:    101325.00000000000000 [Pa]
	                        759.93750000000000 [Torr]
	                          1.01325000000000 [bar]
	                          1.00000000000000 [atm]

	Molecule contains 1 number of atoms
		atom:    0  is of type:    3 [        Ar] (group: 0)

	Molecule contains 0 chirality centers

	Molecule contains 1 number of groups

		group: 0 containing: 1 elements
		-------------------------------------------------
		the group is modelled as flexible, i.e. no constraints
		Mass: 39.948000 [a.u.]
		Mass: 1.046975 [kg/m^3]

		Rotational Degrees of freedom: 0
		Diagonalized inertia vector:       0.0000000000
		                                   0.0000000000
		                                   0.0000000000
		element: 0 atom: 0 [        Ar] Charge:  0.000000 Anisotropy: 0.000000 Connectivity: 0 ()

		Dipole:           0.0000000000 [D]
		Quadrupole:       0.0000000000       0.0000000000       0.0000000000 [D Angstrom]
		Quadrupole tensor [D Angstrom]
				       0.0000000000       0.0000000000       0.0000000000
				       0.0000000000       0.0000000000       0.0000000000
				       0.0000000000       0.0000000000       0.0000000000

	Starting bead for growth               : 0

	Degrees of freedom                     : 0
	Translational degrees of freedom       : 0
	Rotational degrees of freedom          : 0
	Vibrational degrees of freedom         : 0
	Constraint degrees of freedom          : 0

	Number of atoms                        : 1

	Number of constraint bonds             : 0
	Number of constraint bends             : 0
	Number of constraint inversion bends   : 0
	Number of constraint torsions          : 0
	Number of constraint improper torsions : 0
	Number of constraint improper torsions : 0

	Number of bonds                        : 0
	Number of Urey-Bradleys                : 0
	Number of bends                        : 0
	Number of inversion bends              : 0
	Number of torsions                     : 0
	Number of improper torsions            : 0
	Number of improper torsions            : 0

	Number of bond/bond cross terms        : 0
	Number of bond/bend cross terms        : 0
	Number of bend/bend cross terms        : 0
	Number of stretch/torsion cross terms  : 0
	Number of bend/torsion cross terms     : 0

	Number of charges                      : 0
	Number of bond-dipoles                 : 0

	Number of intra Van der Waals                             : 0
	Number of intra charge-charge Coulomb                     : 0
	Number of intra charge-bonddipole Coulomb                 : 0
	Number of intra bonddipole-bonddipole Coulomb             : 0

	Number of excluded intra charge-charge Coulomb                     : 0
	Number of excluded intra charge-bonddipole Coulomb                 : 0
	Number of excluded intra bonddipole-bonddipole Coulomb             : 0

	Number of cbmc-config moves                               : 0

	Particle Moves:             
		ProbabilityTranslationMove:                  20.000000
			TranslationDirection:      XYZ
		Percentage of random translation moves:            0.000000
		Percentage of rotation moves:                      20.000000
		Percentage of random rotation moves:               0.000000
		Percentage of partial reinsertion moves:           0.000000
		Percentage of reinsertion moves:                   20.000000
		Percentage of reinsertion-in-place moves:          0.000000
		Percentage of reinsertion-in-plane moves:          0.000000
		Percentage of identity-change moves:               0.000000
		Percentage of swap (insert/delete) moves:          40.000000
		Percentage of CF swap lambda moves:                0.000000
		Percentage of CB/CFMC swap lambda moves:           0.000000
		Percentage of Widom insertion moves:               0.000000
		Percentage of CF-Widom insertion moves:            0.000000
		Percentage of Gibbs Widom insertion moves:         0.000000
		Percentage of surface-area moves:                  0.000000
		Percentage of Gibbs particle-transfer moves:       0.000000
		Percentage of Gibbs identity-change moves:         0.000000
		Percentage of CF Gibbs lambda-transfer moves:      0.000000
		Percentage of CB/CFMC Gibbs lambda-transfer moves: 0.000000
		Percentage of exchange frac./int. particle moves:  0.000000
		Percentage of fractional mol. to other box moves:  0.000000
		Percentage of lambda-change moves:                 0.000000
		Percentage of fractional to integer moves:         0.000000

	System Moves:
		Percentage of parallel-tempering moves:            0.000000
		Percentage of hyper-parallel-tempering moves:      0.000000
		Percentage of parallel-mol-fraction moves:         0.000000
			   Component A: 0 B: 1
		Percentage of chiral inversion moves:              0.000000
		Percentage of Hybrid-NVE moves:                    0.000000
		Percentage of Hybrid-NPH moves:                    0.000000
		Percentage of Hybrid-NPHPR moves:                  0.000000
		Percentage of volume-change moves:                 0.000000
		Percentage of box-shape-change moves:              0.000000
		Percentage of Gibbs volume-change moves:           0.000000
		Percentage of framework-change moves:              0.000000
		Percentage of framework-shift moves:               0.000000
		Percentage of reactive MC moves:                   0.000000

	Moves are restricted: No
	No biased sampling used for this component


	number of identity-config changes: 1
	--------------------------------------------
	nr fixed 1: 0 

	Number of pockets blocked in a unitcell: 0
		Pockets are NOT blocked for this component



Framework Status
===========================================================================
Lowenstein's rule obeyed by framework
	Framework is modelled as: rigid

	Number of charges:                               0
	Number of bonddipoles:                           0


System Properties
===========================================================================
Unit cell size: 19.933000 19.933000 19.933000
Cell angles (radians)  alpha: 1.570796 beta: 1.570796 gamma: 1.570796
Cell angles (degrees)  alpha: 90.000000 beta: 90.000000 gamma: 90.000000
Number of unitcells [a]: 2
Number of unitcells [b]: 2
Number of unitcells [c]: 2

TRICLINIC Boundary conditions: alpha!=90 or beta!=90 or gamma!=90

Cartesian axis A is collinear with crystallographic axis a
Cartesian axis B is collinear with (axb)xA
Cartesian axis C is collinear with (axb)

lengths of cell vectors:
 39.86600  39.86600  39.86600
cosines of cell angles:
  0.00000   0.00000   0.00000
perpendicular cell widths:
 39.86600  39.86600  39.86600
volume of the cell: 63358.952313895992 (A^3)

Orthogonalization matrix Box
Transforms fractional coordinates abc into orthonormal Cartesian coordinates xyz
Deorthogonalization matrix InverseBox
Transforms orthonormal Cartesian coordinates xyz into fractional coordinates xyz

Box[0]:
	   39.866000000000     0.000000000000     0.000000000000
	    0.000000000000    39.866000000000     0.000000000000
	    0.000000000000     0.000000000000    39.866000000000

Inverse box[0]:
	    0.025084031506    -0.000000000000    -0.000000000000
	    0.000000000000     0.025084031506    -0.000000000000
	    0.000000000000     0.000000000000     0.025084031506


Unitcell box[0]:
	   19.933000000000     0.000000000000     0.000000000000
	    0.000000000000    19.933000000000     0.000000000000
	    0.000000000000     0.000000000000    19.933000000000

Unitcell inverse box[0]:
	    0.050168063011    -0.000000000000    -0.000000000000
	    0.000000000000     0.050168063011    -0.000000000000
	    0.000000000000     0.000000000000     0.050168063011

lengths of cell vectors (inverse box):
  0.02508   0.02508   0.02508
cosines of cell angles (inverse box):
 -0.00000  -0.00000  -0.00000
perpendicular cell widths (inverse):
  0.02508   0.02508   0.02508
volume of the cell: 63358.952313895992 (A^3)

No replicas are used
Framework is simulated as 'rigid'
Number of framework atoms: 3264
Number of framework atoms in the unit cell: 408
Framework Mass: 65371.718400001875 [g/mol]
Framework Density:  1713.290167703145 [kg/m^3]    0.5836722925578 [cm^3/g]
Helium void fraction:    0.00000000
Available pore volume:    0.00000000 [A^3]    0.00000000 [cm^3/g]
Conversion factor from molecule/unit cell -> kmol/m^3: 0.0262084, kmol/m^3 accesible pore volume: inf

Number Of Frameworks (per system): 1
----------------------------------------------------------------------
Framework name: zeolite
Space group: 227
	Identifier: 526
	short international Hermann-Mauguin symbol: F d -3 m:2
	long international Hermann-Mauguin symbol: F 41/d -3 2/m:2
	Hall symbol: -F 4vw 2vw 3
	Number of lattice translations: 4 [ (0,0,0) (0,0.5,0.5) (0.5,0,0.5) (0.5,0.5,0) ]
	acentric/centric: acentric
	chiral: yes
	enantiomorphic: no
	number of operators: 192
		'x,y,z'
		'-x+3/4,-y+1/4,z+1/2'
		'-x+1/4,y+1/2,-z+3/4'
		'x+1/2,-y+3/4,-z+1/4'
		'z,x,y'
		'z+1/2,-x+3/4,-y+1/4'
		'-z+3/4,-x+1/4,y+1/2'
		'-z+1/4,x+1/2,-y+3/4'
		'y,z,x'
		'-y+1/4,z+1/2,-x+3/4'
		'y+1/2,-z+3/4,-x+1/4'
		'-y+3/4,-z+1/4,x+1/2'
		'y+3/4,x+1/4,-z+1/2'
		'-y,-x,-z'
		'y+1/4,-x+1/2,z+3/4'
		'-y+1/2,x+3/4,z+1/4'
		'x+3/4,z+1/4,-y+1/2'
		'-x+1/2,z+3/4,y+1/4'
		'-x,-z,-y'
		'x+1/4,-z+1/2,y+3/4'
		'z+3/4,y+1/4,-x+1/2'
		'z+1/4,-y+1/2,x+3/4'
		'-z+1/2,y+3/4,x+1/4'
		'-z,-y,-x'
		'-x,-y,-z'
		'x+1/4,y+3/4,-z+1/2'
		'x+3/4,-y+1/2,z+1/4'
		'-x+1/2,y+1/4,z+3/4'
		'-z,-x,-y'
		'-z+1/2,x+1/4,y+3/4'
		'z+1/4,x+3/4,-y+1/2'
		'z+3/4,-x+1/2,y+1/4'
		'-y,-z,-x'
		'y+3/4,-z+1/2,x+1/4'
		'-y+1/2,z+1/4,x+3/4'
		'y+1/4,z+3/4,-x+1/2'
		'-y+1/4,-x+3/4,z+1/2'
		'y,x,z'
		'-y+3/4,x+1/2,-z+1/4'
		'y+1/2,-x+1/4,-z+3/4'
		'-x+1/4,-z+3/4,y+1/2'
		'x+1/2,-z+1/4,-y+3/4'
		'x,z,y'
		'-x+3/4,z+1/2,-y+1/4'
		'-z+1/4,-y+3/4,x+1/2'
		'-z+3/4,y+1/2,-x+1/4'
		'z+1/2,-y+1/4,-x+3/4'
		'z,y,x'
		'x,y+1/2,z+1/2'
		'-x+3/4,-y+3/4,z'
		'-x+1/4,y,-z+1/4'
		'x+1/2,-y+1/4,-z+3/4'
		'z,x+1/2,y+1/2'
		'z+1/2,-x+1/4,-y+3/4'
		'-z+3/4,-x+3/4,y'
		'-z+1/4,x,-y+1/4'
		'y,z+1/2,x+1/2'
		'-y+1/4,z,-x+1/4'
		'y+1/2,-z+1/4,-x+3/4'
		'-y+3/4,-z+3/4,x'
		'y+3/4,x+3/4,-z'
		'-y,-x+1/2,-z+1/2'
		'y+1/4,-x,z+1/4'
		'-y+1/2,x+1/4,z+3/4'
		'x+3/4,z+3/4,-y'
		'-x+1/2,z+1/4,y+3/4'
		'-x,-z+1/2,-y+1/2'
		'x+1/4,-z,y+1/4'
		'z+3/4,y+3/4,-x'
		'z+1/4,-y,x+1/4'
		'-z+1/2,y+1/4,x+3/4'
		'-z,-y+1/2,-x+1/2'
		'-x,-y+1/2,-z+1/2'
		'x+1/4,y+1/4,-z'
		'x+3/4,-y,z+3/4'
		'-x+1/2,y+3/4,z+1/4'
		'-z,-x+1/2,-y+1/2'
		'-z+1/2,x+3/4,y+1/4'
		'z+1/4,x+1/4,-y'
		'z+3/4,-x,y+3/4'
		'-y,-z+1/2,-x+1/2'
		'y+3/4,-z,x+3/4'
		'-y+1/2,z+3/4,x+1/4'
		'y+1/4,z+1/4,-x'
		'-y+1/4,-x+1/4,z'
		'y,x+1/2,z+1/2'
		'-y+3/4,x,-z+3/4'
		'y+1/2,-x+3/4,-z+1/4'
		'-x+1/4,-z+1/4,y'
		'x+1/2,-z+3/4,-y+1/4'
		'x,z+1/2,y+1/2'
		'-x+3/4,z,-y+3/4'
		'-z+1/4,-y+1/4,x'
		'-z+3/4,y,-x+3/4'
		'z+1/2,-y+3/4,-x+1/4'
		'z,y+1/2,x+1/2'
		'x+1/2,y,z+1/2'
		'-x+1/4,-y+1/4,z'
		'-x+3/4,y+1/2,-z+1/4'
		'x,-y+3/4,-z+3/4'
		'z+1/2,x,y+1/2'
		'z,-x+3/4,-y+3/4'
		'-z+1/4,-x+1/4,y'
		'-z+3/4,x+1/2,-y+1/4'
		'y+1/2,z,x+1/2'
		'-y+3/4,z+1/2,-x+1/4'
		'y,-z+3/4,-x+3/4'
		'-y+1/4,-z+1/4,x'
		'y+1/4,x+1/4,-z'
		'-y+1/2,-x,-z+1/2'
		'y+3/4,-x+1/2,z+1/4'
		'-y,x+3/4,z+3/4'
		'x+1/4,z+1/4,-y'
		'-x,z+3/4,y+3/4'
		'-x+1/2,-z,-y+1/2'
		'x+3/4,-z+1/2,y+1/4'
		'z+1/4,y+1/4,-x'
		'z+3/4,-y+1/2,x+1/4'
		'-z,y+3/4,x+3/4'
		'-z+1/2,-y,-x+1/2'
		'-x+1/2,-y,-z+1/2'
		'x+3/4,y+3/4,-z'
		'x+1/4,-y+1/2,z+3/4'
		'-x,y+1/4,z+1/4'
		'-z+1/2,-x,-y+1/2'
		'-z,x+1/4,y+1/4'
		'z+3/4,x+3/4,-y'
		'z+1/4,-x+1/2,y+3/4'
		'-y+1/2,-z,-x+1/2'
		'y+1/4,-z+1/2,x+3/4'
		'-y,z+1/4,x+1/4'
		'y+3/4,z+3/4,-x'
		'-y+3/4,-x+3/4,z'
		'y+1/2,x,z+1/2'
		'-y+1/4,x+1/2,-z+3/4'
		'y,-x+1/4,-z+1/4'
		'-x+3/4,-z+3/4,y'
		'x,-z+1/4,-y+1/4'
		'x+1/2,z,y+1/2'
		'-x+1/4,z+1/2,-y+3/4'
		'-z+3/4,-y+3/4,x'
		'-z+1/4,y+1/2,-x+3/4'
		'z,-y+1/4,-x+1/4'
		'z+1/2,y,x+1/2'
		'x+1/2,y+1/2,z'
		'-x+1/4,-y+3/4,z+1/2'
		'-x+3/4,y,-z+3/4'
		'x,-y+1/4,-z+1/4'
		'z+1/2,x+1/2,y'
		'z,-x+1/4,-y+1/4'
		'-z+1/4,-x+3/4,y+1/2'
		'-z+3/4,x,-y+3/4'
		'y+1/2,z+1/2,x'
		'-y+3/4,z,-x+3/4'
		'y,-z+1/4,-x+1/4'
		'-y+1/4,-z+3/4,x+1/2'
		'y+1/4,x+3/4,-z+1/2'
		'-y+1/2,-x+1/2,-z'
		'y+3/4,-x,z+3/4'
		'-y,x+1/4,z+1/4'
		'x+1/4,z+3/4,-y+1/2'
		'-x,z+1/4,y+1/4'
		'-x+1/2,-z+1/2,-y'
		'x+3/4,-z,y+3/4'
		'z+1/4,y+3/4,-x+1/2'
		'z+3/4,-y,x+3/4'
		'-z,y+1/4,x+1/4'
		'-z+1/2,-y+1/2,-x'
		'-x+1/2,-y+1/2,-z'
		'x+3/4,y+1/4,-z+1/2'
		'x+1/4,-y,z+1/4'
		'-x,y+3/4,z+3/4'
		'-z+1/2,-x+1/2,-y'
		'-z,x+3/4,y+3/4'
		'z+3/4,x+1/4,-y+1/2'
		'z+1/4,-x,y+1/4'
		'-y+1/2,-z+1/2,-x'
		'y+1/4,-z,x+1/4'
		'-y,z+3/4,x+3/4'
		'y+3/4,z+1/4,-x+1/2'
		'-y+3/4,-x+1/4,z+1/2'
		'y+1/2,x+1/2,z'
		'-y+1/4,x,-z+1/4'
		'y,-x+3/4,-z+3/4'
		'-x+3/4,-z+1/4,y+1/2'
		'x,-z+3/4,-y+3/4'
		'x+1/2,z+1/2,y'
		'-x+1/4,z,-y+1/4'
		'-z+3/4,-y+1/4,x+1/2'
		'-z+1/4,y,-x+1/4'
		'z,-y+3/4,-x+3/4'
		'z+1/2,y+1/2,x'
Framework is simulated as 'rigid'
Shift: 0.000000 0.000000 0.000000
Number of framework atoms: 3264
Number of asymmetric atoms: 7
Number of free framework atoms: 0
Number of fixed framework atoms: 3264
Number of framework atoms in the unit cell: 408
Framework Mass: 65371.718400001875 [g/mol]
Framework Density:  1713.290167703145 [kg/m^3]
Framework has net charge: 0.000000
         largest charge : 0.000000
         smallest charge: 0.000000

Using FULL Host-guest interaction calculation (for testing purposes)

Current Atom Status
===========================================================================
Number of framework atoms        : 3264
Number of cations molecules      : 0
Number of adsorbate molecules    : 0
Component    0 :    0 molecules
Pseudo Atoms    0 [    UNIT]:    0 atoms
Pseudo Atoms    1 [   DUMMY]:    0 atoms
Pseudo Atoms    2 [      He]:    0 atoms
Pseudo Atoms    3 [      Ar]:    0 atoms
Pseudo Atoms    4 [       T]: 1088 atoms
Pseudo Atoms    5 [      Al]:    0 atoms
Pseudo Atoms    6 [       O]: 2176 atoms


Current (initial full energy) Energy Status
===========================================================================

Internal energy:
Host stretch energy:                                            0.00000000
Host UreyBradley energy:                                        0.00000000
Host bend energy:                                               0.00000000
Host inversion-bend energy:                                     0.00000000
Host torsion energy:                                            0.00000000
Host improper torsion energy:                                   0.00000000
Host out-of-plane energy:                                       0.00000000
Host stretch/stretch energy:                                    0.00000000
Host bend/bend energy:                                          0.00000000
Host stretch/bend energy:                                       0.00000000
Host stretch/torsion energy:                                    0.00000000
Host bend/torsion energy:                                       0.00000000

Adsorbate stretch energy:                                       0.00000000
Adsorbate UreyBradley energy:                                   0.00000000
Adsorbate bend energy:                                          0.00000000
Adsorbate inversion-bend energy:                                0.00000000
Adsorbate torsion energy:                                       0.00000000
Adsorbate improper torsion energy:                              0.00000000
Adsorbate out-of-plane energy:                                  0.00000000
Adsorbate stretch/stretch energy:                               0.00000000
Adsorbate bend/bend energy:                                     0.00000000
Adsorbate stretch/bend energy:                                  0.00000000
Adsorbate stretch/torsion energy:                               0.00000000
Adsorbate bend/torsion energy:                                  0.00000000
Adsorbate intra VDW energy:                                     0.00000000
Adsorbate intra charge-charge Coulomb energy:                   0.00000000
Adsorbate intra charge-bonddipole Coulomb energy:               0.00000000
Adsorbate intra bonddipole-bonddipole Coulomb energy:           0.00000000

Cation stretch energy:                                          0.00000000
Cation UreyBradley energy:                                      0.00000000
Cation bend energy:                                             0.00000000
Cation inversion-bend energy:                                   0.00000000
Cation torsion energy:                                          0.00000000
Cation improper torsion energy:                                 0.00000000
Cation out-of-plane energy:                                     0.00000000
Cation stretch/stretch energy:                                  0.00000000
Cation bend/bend energy:                                        0.00000000
Cation stretch/bend energy:                                     0.00000000
Cation stretch/torsion energy:                                  0.00000000
Cation bend/torsion energy:                                     0.00000000
Cation intra VDW energy:                                        0.00000000
Cation intra charge-charge Coulomb energy:                      0.00000000
Cation intra charge-bonddipole Coulomb energy:                  0.00000000
Cation intra bonddipole-bonddipole Coulomb energy:              0.00000000

Host/Host energy:                                             0.00000000
	Host/Host VDW energy:                                         0.00000000
	Host/Host Coulomb energy:                                     0.00000000
	Host/Host charge-charge Real energy:                          0.00000000
	Host/Host charge-charge Fourier energy:                       0.00000000
	Host/Host charge-bonddipole Real energy:                      0.00000000
	Host/Host charge-bonddipole Fourier energy:                   0.00000000
	Host/Host bondipole-bonddipole Real energy:                   0.00000000
	Host/Host bondipole-bonddipole Fourier energy:                0.00000000

Host/Adsorbate energy:                                        0.00000000
	Host/Adsorbate VDW energy:                                    0.00000000
	Host/Adsorbate Coulomb energy:                                0.00000000
	Host/Adsorbate charge-charge Real energy:                     0.00000000
	Host/Adsorbate charge-charge Fourier energy:                  0.00000000
	Host/Adsorbate charge-bonddipole Real energy:                 0.00000000
	Host/Adsorbate charge-bonddipole Fourier energy:              0.00000000
	Host/Adsorbate bondipole-bonddipole Real energy:              0.00000000
	Host/Adsorbate bondipole-bonddipole Fourier energy:           0.00000000

Host/Cation energy:                                           0.00000000
	Host/Cation VDW energy:                                       0.00000000
	Host/Cation Coulomb energy:                                   0.00000000
	Host/Cation charge-charge Real energy:                        0.00000000
	Host/Cation charge-charge Fourier energy:                     0.00000000
	Host/Cation charge-bonddipole Real energy:                    0.00000000
	Host/Cation charge-bonddipole Fourier energy:                 0.00000000
	Host/Cation bondipole-bonddipole Real energy:                 0.00000000
	Host/Cation bondipole-bonddipole Fourier energy:              0.00000000

Adsorbate/Adsorbate energy:                                        0.00000000
	Adsorbate/Adsorbate VDW energy:                                    0.00000000
	Adsorbate/Adsorbate Coulomb energy:                                0.00000000
	Adsorbate/Adsorbate charge-charge Real energy:                     0.00000000
	Adsorbate/Adsorbate charge-charge Fourier energy:                  0.00000000
	Adsorbate/Adsorbate charge-bonddipole Real energy:                 0.00000000
	Adsorbate/Adsorbate charge-bonddipole Fourier energy:              0.00000000
	Adsorbate/Adsorbate bondipole-bonddipole Real energy:              0.00000000
	Adsorbate/Adsorbate bondipole-bonddipole Fourier energy:           0.00000000

Adsorbate/Cation energy:                                           0.00000000
	Adsorbate/Cation VDW energy:                                       0.00000000
	Adsorbate/Cation Coulomb energy:                                   0.00000000
	Adsorbate/Cation charge-charge Real energy:                        0.00000000
	Adsorbate/Cation charge-charge Fourier energy:                     0.00000000
	Adsorbate/Cation charge-bonddipole Real energy:                    0.00000000
	Adsorbate/Cation charge-bonddipole Fourier energy:                 0.00000000
	Adsorbate/Cation bondipole-bonddipole Real energy:                 0.00000000
	Adsorbate/Cation bondipole-bonddipole Fourier energy:              0.00000000

Cation/Cation energy:                                           0.00000000
	Cation/Cation VDW energy:                                       0.00000000
	Cation/Cation Coulomb energy:                                   0.00000000
	Cation/Cation charge-charge Real energy:                        0.00000000
	Cation/Cation charge-charge Fourier energy:                     0.00000000
	Cation/Cation charge-bonddipole Real energy:                    0.00000000
	Cation/Cation charge-bonddipole Fourier energy:                 0.00000000
	Cation/Cation bondipole-bonddipole Real energy:                 0.00000000
	Cation/Cation bondipole-bonddipole Fourier energy:              0.00000000

Polarization energy:
	Host polarization energy:                                     0.00000000
	Adsorbate polarization energy:                                0.00000000
	Cation polarization energy:                                   0.00000000
	Host back-polarization energy:                                     0.00000000
	Adsorbate back-polarization energy:                                0.00000000
	Cation back-polarization energy:                                   0.00000000

Tail-correction energy:                                       0.00000000

Distance constraints energy:                                  0.00000000
Angle constraints energy:                                     0.00000000
Dihedral constraints energy:                                  0.00000000
Inversion-bend constraints energy:                            0.00000000
Out-of-plane distance constraints energy:                     0.00000000
Exclusion constraints energy:                                 0.00000000

===================================================================
Total energy:     0.000000000000
	Total Van der Waals: 0.000000
	Total Coulomb: 0.000000

	Total Polarization: 0.000000







+++++++++++++++++++++++++++++++++++++++++++++++++++++++++++++++++++++++++
Starting simulation
+++++++++++++++++++++++++++++++++++++++++++++++++++++++++++++++++++++++++

[Init] Current cycle: 0 out of 100000
========================================================================================================

Net charge: 0 (F: 0, A: 0, C: 0)
Current Box:  39.86600   0.00000   0.00000 [A]
               0.00000  39.86600   0.00000 [A]
               0.00000   0.00000  39.86600 [A]
Box-lengths:  39.86600  39.86600  39.86600 Box-angles:   90.00000  90.00000  90.00000 [degrees]
Volume: 63358.95231 [A^3]

Loadings per component:
----------------------------------------------------------------------------------------------------------------------------------------------------
Component 0 (argon), current number of integer/fractional/reaction molecules: 0/0/0, density:   0.00000 [kg/m^3]
	absolute adsorption:   0.00000 [mol/uc],         0.0000 [mol/kg],              0.0000 [mg/g]
	                                                 0.0000 [cm^3 STP/g],          0.0000 [cm^3 STP/cm^3]
	excess adsorption:     0.00000 [mol/uc],         0.0000 [mol/kg],              0.0000 [mg/g]
	                                                 0.0000 [cm^3 STP/g],          0.0000 [cm^3 STP/cm^3]
----------------------------------------------------------------------------------------------------------------------------------------------------
Degrees of freedom: 0 0 0 0
Number of Framework-atoms:   3264
Number of Adsorbates:           0 (0 integer, 0 fractional, 0 reaction)
Number of Cations:              0 (0 integer, 0 fractional, 0 reaction

Current total potential energy:                 0.0000000000 [K]
	Current Host-Host energy:                     0.0000000000 [K]
	Current Host-Adsorbate energy:                0.0000000000 [K]
	Current Host-Cation energy:                   0.0000000000 [K]
	Current Adsorbate-Adsorbate energy:           0.0000000000 [K]
	Current Cation-Cation energy:                 0.0000000000 [K]
	Current Adsorbate-Cation energy:              0.0000000000 [K]



[Init] Current cycle: 1000 out of 100000
========================================================================================================

Net charge: 0 (F: 0, A: 0, C: 0)
Current Box:  39.86600   0.00000   0.00000 [A]
               0.00000  39.86600   0.00000 [A]
               0.00000   0.00000  39.86600 [A]
Box-lengths:  39.86600  39.86600  39.86600 Box-angles:   90.00000  90.00000  90.00000 [degrees]
Volume: 63358.95231 [A^3]

Loadings per component:
----------------------------------------------------------------------------------------------------------------------------------------------------
Component 0 (argon), current number of integer/fractional/reaction molecules: 323/0/0, density: 338.17303 [kg/m^3]
	absolute adsorption:  40.37500 [mol/uc],         4.9410 [mol/kg],            197.3821 [mg/g]
	                                               110.7469 [cm^3 STP/g],        189.7415 [cm^3 STP/cm^3]
	excess adsorption:    40.37500 [mol/uc],         4.9410 [mol/kg],            197.3821 [mg/g]
	                                               110.7469 [cm^3 STP/g],        189.7415 [cm^3 STP/cm^3]
----------------------------------------------------------------------------------------------------------------------------------------------------
Degrees of freedom: 969 0 969 0
Number of Framework-atoms:   3264
Number of Adsorbates:         323 (323 integer, 0 fractional, 0 reaction)
Number of Cations:              0 (0 integer, 0 fractional, 0 reaction

Current total potential energy:          -1029176.5569403383 [K]
	Current Host-Host energy:                     0.0000000000 [K]
	Current Host-Adsorbate energy:         -1019607.5404531541 [K]
	Current Host-Cation energy:                   0.0000000000 [K]
	Current Adsorbate-Adsorbate energy:       -9569.0164871857 [K]
	Current Cation-Cation energy:                 0.0000000000 [K]
	Current Adsorbate-Cation energy:              0.0000000000 [K]



[Init] Current cycle: 2000 out of 100000
========================================================================================================

Net charge: 0 (F: 0, A: 0, C: 0)
Current Box:  39.86600   0.00000   0.00000 [A]
               0.00000  39.86600   0.00000 [A]
               0.00000   0.00000  39.86600 [A]
Box-lengths:  39.86600  39.86600  39.86600 Box-angles:   90.00000  90.00000  90.00000 [degrees]
Volume: 63358.95231 [A^3]

Loadings per component:
----------------------------------------------------------------------------------------------------------------------------------------------------
Component 0 (argon), current number of integer/fractional/reaction molecules: 340/0/0, density: 355.97161 [kg/m^3]
	absolute adsorption:  42.50000 [mol/uc],         5.2010 [mol/kg],            207.7706 [mg/g]
	                                               116.5757 [cm^3 STP/g],        199.7279 [cm^3 STP/cm^3]
	excess adsorption:    42.50000 [mol/uc],         5.2010 [mol/kg],            207.7706 [mg/g]
	                                               116.5757 [cm^3 STP/g],        199.7279 [cm^3 STP/cm^3]
----------------------------------------------------------------------------------------------------------------------------------------------------
Degrees of freedom: 1020 0 1020 0
Number of Framework-atoms:   3264
Number of Adsorbates:         340 (340 integer, 0 fractional, 0 reaction)
Number of Cations:              0 (0 integer, 0 fractional, 0 reaction

Current total potential energy:          -1076630.7202544131 [K]
	Current Host-Host energy:                     0.0000000000 [K]
	Current Host-Adsorbate energy:         -1063836.4388214743 [K]
	Current Host-Cation energy:                   0.0000000000 [K]
	Current Adsorbate-Adsorbate energy:      -12794.2814329310 [K]
	Current Cation-Cation energy:                 0.0000000000 [K]
	Current Adsorbate-Cation energy:              0.0000000000 [K]



[Init] Current cycle: 3000 out of 100000
========================================================================================================

Net charge: 0 (F: 0, A: 0, C: 0)
Current Box:  39.86600   0.00000   0.00000 [A]
               0.00000  39.86600   0.00000 [A]
               0.00000   0.00000  39.86600 [A]
Box-lengths:  39.86600  39.86600  39.86600 Box-angles:   90.00000  90.00000  90.00000 [degrees]
Volume: 63358.95231 [A^3]

Loadings per component:
----------------------------------------------------------------------------------------------------------------------------------------------------
Component 0 (argon), current number of integer/fractional/reaction molecules: 349/0/0, density: 365.39439 [kg/m^3]
	absolute adsorption:  43.62500 [mol/uc],         5.3387 [mol/kg],            213.2704 [mg/g]
	                                               119.6615 [cm^3 STP/g],        205.0149 [cm^3 STP/cm^3]
	excess adsorption:    43.62500 [mol/uc],         5.3387 [mol/kg],            213.2704 [mg/g]
	                                               119.6615 [cm^3 STP/g],        205.0149 [cm^3 STP/cm^3]
----------------------------------------------------------------------------------------------------------------------------------------------------
Degrees of freedom: 1047 0 1047 0
Number of Framework-atoms:   3264
Number of Adsorbates:         349 (349 integer, 0 fractional, 0 reaction)
Number of Cations:              0 (0 integer, 0 fractional, 0 reaction

Current total potential energy:          -1096363.1379886235 [K]
	Current Host-Host energy:                     0.0000000000 [K]
	Current Host-Adsorbate energy:         -1082119.3192658776 [K]
	Current Host-Cation energy:                   0.0000000000 [K]
	Current Adsorbate-Adsorbate energy:      -14243.8187227357 [K]
	Current Cation-Cation energy:                 0.0000000000 [K]
	Current Adsorbate-Cation energy:              0.0000000000 [K]



[Init] Current cycle: 4000 out of 100000
========================================================================================================

Net charge: 0 (F: 0, A: 0, C: 0)
Current Box:  39.86600   0.00000   0.00000 [A]
               0.00000  39.86600   0.00000 [A]
               0.00000   0.00000  39.86600 [A]
Box-lengths:  39.86600  39.86600  39.86600 Box-angles:   90.00000  90.00000  90.00000 [degrees]
Volume: 63358.95231 [A^3]

Loadings per component:
----------------------------------------------------------------------------------------------------------------------------------------------------
Component 0 (argon), current number of integer/fractional/reaction molecules: 356/0/0, density: 372.72322 [kg/m^3]
	absolute adsorption:  44.50000 [mol/uc],         5.4458 [mol/kg],            217.5480 [mg/g]
	                                               122.0616 [cm^3 STP/g],        209.1269 [cm^3 STP/cm^3]
	excess adsorption:    44.50000 [mol/uc],         5.4458 [mol/kg],            217.5480 [mg/g]
	                                               122.0616 [cm^3 STP/g],        209.1269 [cm^3 STP/cm^3]
----------------------------------------------------------------------------------------------------------------------------------------------------
Degrees of freedom: 1068 0 1068 0
Number of Framework-atoms:   3264
Number of Adsorbates:         356 (356 integer, 0 fractional, 0 reaction)
Number of Cations:              0 (0 integer, 0 fractional, 0 reaction

Current total potential energy:          -1119535.0540813855 [K]
	Current Host-Host energy:                     0.0000000000 [K]
	Current Host-Adsorbate energy:         -1105690.5559537497 [K]
	Current Host-Cation energy:                   0.0000000000 [K]
	Current Adsorbate-Adsorbate energy:      -13844.4981276252 [K]
	Current Cation-Cation energy:                 0.0000000000 [K]
	Current Adsorbate-Cation energy:              0.0000000000 [K]



[Init] Current cycle: 5000 out of 100000
========================================================================================================

Net charge: 0 (F: 0, A: 0, C: 0)
Current Box:  39.86600   0.00000   0.00000 [A]
               0.00000  39.86600   0.00000 [A]
               0.00000   0.00000  39.86600 [A]
Box-lengths:  39.86600  39.86600  39.86600 Box-angles:   90.00000  90.00000  90.00000 [degrees]
Volume: 63358.95231 [A^3]

Loadings per component:
----------------------------------------------------------------------------------------------------------------------------------------------------
Component 0 (argon), current number of integer/fractional/reaction molecules: 365/0/0, density: 382.14599 [kg/m^3]
	absolute adsorption:  45.62500 [mol/uc],         5.5835 [mol/kg],            223.0478 [mg/g]
	                                               125.1474 [cm^3 STP/g],        214.4138 [cm^3 STP/cm^3]
	excess adsorption:    45.62500 [mol/uc],         5.5835 [mol/kg],            223.0478 [mg/g]
	                                               125.1474 [cm^3 STP/g],        214.4138 [cm^3 STP/cm^3]
----------------------------------------------------------------------------------------------------------------------------------------------------
Degrees of freedom: 1095 0 1095 0
Number of Framework-atoms:   3264
Number of Adsorbates:         365 (365 integer, 0 fractional, 0 reaction)
Number of Cations:              0 (0 integer, 0 fractional, 0 reaction

Current total potential energy:          -1141725.7737080543 [K]
	Current Host-Host energy:                     0.0000000000 [K]
	Current Host-Adsorbate energy:         -1122955.5382840810 [K]
	Current Host-Cation energy:                   0.0000000000 [K]
	Current Adsorbate-Adsorbate energy:      -18770.2354239584 [K]
	Current Cation-Cation energy:                 0.0000000000 [K]
	Current Adsorbate-Cation energy:              0.0000000000 [K]



[Init] Current cycle: 6000 out of 100000
========================================================================================================

Net charge: 0 (F: 0, A: 0, C: 0)
Current Box:  39.86600   0.00000   0.00000 [A]
               0.00000  39.86600   0.00000 [A]
               0.00000   0.00000  39.86600 [A]
Box-lengths:  39.86600  39.86600  39.86600 Box-angles:   90.00000  90.00000  90.00000 [degrees]
Volume: 63358.95231 [A^3]

Loadings per component:
----------------------------------------------------------------------------------------------------------------------------------------------------
Component 0 (argon), current number of integer/fractional/reaction molecules: 374/0/0, density: 391.56877 [kg/m^3]
	absolute adsorption:  46.75000 [mol/uc],         5.7211 [mol/kg],            228.5476 [mg/g]
	                                               128.2332 [cm^3 STP/g],        219.7007 [cm^3 STP/cm^3]
	excess adsorption:    46.75000 [mol/uc],         5.7211 [mol/kg],            228.5476 [mg/g]
	                                               128.2332 [cm^3 STP/g],        219.7007 [cm^3 STP/cm^3]
----------------------------------------------------------------------------------------------------------------------------------------------------
Degrees of freedom: 1122 0 1122 0
Number of Framework-atoms:   3264
Number of Adsorbates:         374 (374 integer, 0 fractional, 0 reaction)
Number of Cations:              0 (0 integer, 0 fractional, 0 reaction

Current total potential energy:          -1161092.5215878615 [K]
	Current Host-Host energy:                     0.0000000000 [K]
	Current Host-Adsorbate energy:         -1144894.9258392295 [K]
	Current Host-Cation energy:                   0.0000000000 [K]
	Current Adsorbate-Adsorbate energy:      -16197.5957486365 [K]
	Current Cation-Cation energy:                 0.0000000000 [K]
	Current Adsorbate-Cation energy:              0.0000000000 [K]



[Init] Current cycle: 7000 out of 100000
========================================================================================================

Net charge: 0 (F: 0, A: 0, C: 0)
Current Box:  39.86600   0.00000   0.00000 [A]
               0.00000  39.86600   0.00000 [A]
               0.00000   0.00000  39.86600 [A]
Box-lengths:  39.86600  39.86600  39.86600 Box-angles:   90.00000  90.00000  90.00000 [degrees]
Volume: 63358.95231 [A^3]

Loadings per component:
----------------------------------------------------------------------------------------------------------------------------------------------------
Component 0 (argon), current number of integer/fractional/reaction molecules: 376/0/0, density: 393.66272 [kg/m^3]
	absolute adsorption:  47.00000 [mol/uc],         5.7517 [mol/kg],            229.7698 [mg/g]
	                                               128.9190 [cm^3 STP/g],        220.8756 [cm^3 STP/cm^3]
	excess adsorption:    47.00000 [mol/uc],         5.7517 [mol/kg],            229.7698 [mg/g]
	                                               128.9190 [cm^3 STP/g],        220.8756 [cm^3 STP/cm^3]
----------------------------------------------------------------------------------------------------------------------------------------------------
Degrees of freedom: 1128 0 1128 0
Number of Framework-atoms:   3264
Number of Adsorbates:         376 (376 integer, 0 fractional, 0 reaction)
Number of Cations:              0 (0 integer, 0 fractional, 0 reaction

Current total potential energy:          -1171244.3347707838 [K]
	Current Host-Host energy:                     0.0000000000 [K]
	Current Host-Adsorbate energy:         -1150513.2254426784 [K]
	Current Host-Cation energy:                   0.0000000000 [K]
	Current Adsorbate-Adsorbate energy:      -20731.1093281133 [K]
	Current Cation-Cation energy:                 0.0000000000 [K]
	Current Adsorbate-Cation energy:              0.0000000000 [K]



[Init] Current cycle: 8000 out of 100000
========================================================================================================

Net charge: 0 (F: 0, A: 0, C: 0)
Current Box:  39.86600   0.00000   0.00000 [A]
               0.00000  39.86600   0.00000 [A]
               0.00000   0.00000  39.86600 [A]
Box-lengths:  39.86600  39.86600  39.86600 Box-angles:   90.00000  90.00000  90.00000 [degrees]
Volume: 63358.95231 [A^3]

Loadings per component:
----------------------------------------------------------------------------------------------------------------------------------------------------
Component 0 (argon), current number of integer/fractional/reaction molecules: 376/0/0, density: 393.66272 [kg/m^3]
	absolute adsorption:  47.00000 [mol/uc],         5.7517 [mol/kg],            229.7698 [mg/g]
	                                               128.9190 [cm^3 STP/g],        220.8756 [cm^3 STP/cm^3]
	excess adsorption:    47.00000 [mol/uc],         5.7517 [mol/kg],            229.7698 [mg/g]
	                                               128.9190 [cm^3 STP/g],        220.8756 [cm^3 STP/cm^3]
----------------------------------------------------------------------------------------------------------------------------------------------------
Degrees of freedom: 1128 0 1128 0
Number of Framework-atoms:   3264
Number of Adsorbates:         376 (376 integer, 0 fractional, 0 reaction)
Number of Cations:              0 (0 integer, 0 fractional, 0 reaction

Current total potential energy:          -1170225.8155004869 [K]
	Current Host-Host energy:                     0.0000000000 [K]
	Current Host-Adsorbate energy:         -1150742.5509808543 [K]
	Current Host-Cation energy:                   0.0000000000 [K]
	Current Adsorbate-Adsorbate energy:      -19483.2645196462 [K]
	Current Cation-Cation energy:                 0.0000000000 [K]
	Current Adsorbate-Cation energy:              0.0000000000 [K]



[Init] Current cycle: 9000 out of 100000
========================================================================================================

Net charge: 0 (F: 0, A: 0, C: 0)
Current Box:  39.86600   0.00000   0.00000 [A]
               0.00000  39.86600   0.00000 [A]
               0.00000   0.00000  39.86600 [A]
Box-lengths:  39.86600  39.86600  39.86600 Box-angles:   90.00000  90.00000  90.00000 [degrees]
Volume: 63358.95231 [A^3]

Loadings per component:
----------------------------------------------------------------------------------------------------------------------------------------------------
Component 0 (argon), current number of integer/fractional/reaction molecules: 377/0/0, density: 394.70970 [kg/m^3]
	absolute adsorption:  47.12500 [mol/uc],         5.7670 [mol/kg],            230.3809 [mg/g]
	                                               129.2618 [cm^3 STP/g],        221.4630 [cm^3 STP/cm^3]
	excess adsorption:    47.12500 [mol/uc],         5.7670 [mol/kg],            230.3809 [mg/g]
	                                               129.2618 [cm^3 STP/g],        221.4630 [cm^3 STP/cm^3]
----------------------------------------------------------------------------------------------------------------------------------------------------
Degrees of freedom: 1131 0 1131 0
Number of Framework-atoms:   3264
Number of Adsorbates:         377 (377 integer, 0 fractional, 0 reaction)
Number of Cations:              0 (0 integer, 0 fractional, 0 reaction

Current total potential energy:          -1172874.9372401121 [K]
	Current Host-Host energy:                     0.0000000000 [K]
	Current Host-Adsorbate energy:         -1151712.2326857729 [K]
	Current Host-Cation energy:                   0.0000000000 [K]
	Current Adsorbate-Adsorbate energy:      -21162.7045543521 [K]
	Current Cation-Cation energy:                 0.0000000000 [K]
	Current Adsorbate-Cation energy:              0.0000000000 [K]



[Init] Current cycle: 10000 out of 100000
========================================================================================================

Net charge: 0 (F: 0, A: 0, C: 0)
Current Box:  39.86600   0.00000   0.00000 [A]
               0.00000  39.86600   0.00000 [A]
               0.00000   0.00000  39.86600 [A]
Box-lengths:  39.86600  39.86600  39.86600 Box-angles:   90.00000  90.00000  90.00000 [degrees]
Volume: 63358.95231 [A^3]

Loadings per component:
----------------------------------------------------------------------------------------------------------------------------------------------------
Component 0 (argon), current number of integer/fractional/reaction molecules: 379/0/0, density: 396.80365 [kg/m^3]
	absolute adsorption:  47.37500 [mol/uc],         5.7976 [mol/kg],            231.6031 [mg/g]
	                                               129.9476 [cm^3 STP/g],        222.6379 [cm^3 STP/cm^3]
	excess adsorption:    47.37500 [mol/uc],         5.7976 [mol/kg],            231.6031 [mg/g]
	                                               129.9476 [cm^3 STP/g],        222.6379 [cm^3 STP/cm^3]
----------------------------------------------------------------------------------------------------------------------------------------------------
Degrees of freedom: 1137 0 1137 0
Number of Framework-atoms:   3264
Number of Adsorbates:         379 (379 integer, 0 fractional, 0 reaction)
Number of Cations:              0 (0 integer, 0 fractional, 0 reaction

Current total potential energy:          -1171778.0354906090 [K]
	Current Host-Host energy:                     0.0000000000 [K]
	Current Host-Adsorbate energy:         -1150808.6843234121 [K]
	Current Host-Cation energy:                   0.0000000000 [K]
	Current Adsorbate-Adsorbate energy:      -20969.3511672124 [K]
	Current Cation-Cation energy:                 0.0000000000 [K]
	Current Adsorbate-Cation energy:              0.0000000000 [K]



[Init] Current cycle: 11000 out of 100000
========================================================================================================

Net charge: 0 (F: 0, A: 0, C: 0)
Current Box:  39.86600   0.00000   0.00000 [A]
               0.00000  39.86600   0.00000 [A]
               0.00000   0.00000  39.86600 [A]
Box-lengths:  39.86600  39.86600  39.86600 Box-angles:   90.00000  90.00000  90.00000 [degrees]
Volume: 63358.95231 [A^3]

Loadings per component:
----------------------------------------------------------------------------------------------------------------------------------------------------
Component 0 (argon), current number of integer/fractional/reaction molecules: 382/0/0, density: 399.94458 [kg/m^3]
	absolute adsorption:  47.75000 [mol/uc],         5.8435 [mol/kg],            233.4364 [mg/g]
	                                               130.9762 [cm^3 STP/g],        224.4002 [cm^3 STP/cm^3]
	excess adsorption:    47.75000 [mol/uc],         5.8435 [mol/kg],            233.4364 [mg/g]
	                                               130.9762 [cm^3 STP/g],        224.4002 [cm^3 STP/cm^3]
----------------------------------------------------------------------------------------------------------------------------------------------------
Degrees of freedom: 1146 0 1146 0
Number of Framework-atoms:   3264
Number of Adsorbates:         382 (382 integer, 0 fractional, 0 reaction)
Number of Cations:              0 (0 integer, 0 fractional, 0 reaction

Current total potential energy:          -1184174.6826819228 [K]
	Current Host-Host energy:                     0.0000000000 [K]
	Current Host-Adsorbate energy:         -1163059.4603699555 [K]
	Current Host-Cation energy:                   0.0000000000 [K]
	Current Adsorbate-Adsorbate energy:      -21115.2223119999 [K]
	Current Cation-Cation energy:                 0.0000000000 [K]
	Current Adsorbate-Cation energy:              0.0000000000 [K]



[Init] Current cycle: 12000 out of 100000
========================================================================================================

Net charge: 0 (F: 0, A: 0, C: 0)
Current Box:  39.86600   0.00000   0.00000 [A]
               0.00000  39.86600   0.00000 [A]
               0.00000   0.00000  39.86600 [A]
Box-lengths:  39.86600  39.86600  39.86600 Box-angles:   90.00000  90.00000  90.00000 [degrees]
Volume: 63358.95231 [A^3]

Loadings per component:
----------------------------------------------------------------------------------------------------------------------------------------------------
Component 0 (argon), current number of integer/fractional/reaction molecules: 383/0/0, density: 400.99155 [kg/m^3]
	absolute adsorption:  47.87500 [mol/uc],         5.8588 [mol/kg],            234.0475 [mg/g]
	                                               131.3191 [cm^3 STP/g],        224.9877 [cm^3 STP/cm^3]
	excess adsorption:    47.87500 [mol/uc],         5.8588 [mol/kg],            234.0475 [mg/g]
	                                               131.3191 [cm^3 STP/g],        224.9877 [cm^3 STP/cm^3]
----------------------------------------------------------------------------------------------------------------------------------------------------
Degrees of freedom: 1149 0 1149 0
Number of Framework-atoms:   3264
Number of Adsorbates:         383 (383 integer, 0 fractional, 0 reaction)
Number of Cations:              0 (0 integer, 0 fractional, 0 reaction

Current total potential energy:          -1184772.7695365914 [K]
	Current Host-Host energy:                     0.0000000000 [K]
	Current Host-Adsorbate energy:         -1162548.4706549894 [K]
	Current Host-Cation energy:                   0.0000000000 [K]
	Current Adsorbate-Adsorbate energy:      -22224.2988816405 [K]
	Current Cation-Cation energy:                 0.0000000000 [K]
	Current Adsorbate-Cation energy:              0.0000000000 [K]



[Init] Current cycle: 13000 out of 100000
========================================================================================================

Net charge: 0 (F: 0, A: 0, C: 0)
Current Box:  39.86600   0.00000   0.00000 [A]
               0.00000  39.86600   0.00000 [A]
               0.00000   0.00000  39.86600 [A]
Box-lengths:  39.86600  39.86600  39.86600 Box-angles:   90.00000  90.00000  90.00000 [degrees]
Volume: 63358.95231 [A^3]

Loadings per component:
----------------------------------------------------------------------------------------------------------------------------------------------------
Component 0 (argon), current number of integer/fractional/reaction molecules: 383/0/0, density: 400.99155 [kg/m^3]
	absolute adsorption:  47.87500 [mol/uc],         5.8588 [mol/kg],            234.0475 [mg/g]
	                                               131.3191 [cm^3 STP/g],        224.9877 [cm^3 STP/cm^3]
	excess adsorption:    47.87500 [mol/uc],         5.8588 [mol/kg],            234.0475 [mg/g]
	                                               131.3191 [cm^3 STP/g],        224.9877 [cm^3 STP/cm^3]
----------------------------------------------------------------------------------------------------------------------------------------------------
Degrees of freedom: 1149 0 1149 0
Number of Framework-atoms:   3264
Number of Adsorbates:         383 (383 integer, 0 fractional, 0 reaction)
Number of Cations:              0 (0 integer, 0 fractional, 0 reaction

Current total potential energy:          -1185772.4307993224 [K]
	Current Host-Host energy:                     0.0000000000 [K]
	Current Host-Adsorbate energy:         -1161981.3573101666 [K]
	Current Host-Cation energy:                   0.0000000000 [K]
	Current Adsorbate-Adsorbate energy:      -23791.0734891800 [K]
	Current Cation-Cation energy:                 0.0000000000 [K]
	Current Adsorbate-Cation energy:              0.0000000000 [K]



[Init] Current cycle: 14000 out of 100000
========================================================================================================

Net charge: 0 (F: 0, A: 0, C: 0)
Current Box:  39.86600   0.00000   0.00000 [A]
               0.00000  39.86600   0.00000 [A]
               0.00000   0.00000  39.86600 [A]
Box-lengths:  39.86600  39.86600  39.86600 Box-angles:   90.00000  90.00000  90.00000 [degrees]
Volume: 63358.95231 [A^3]

Loadings per component:
----------------------------------------------------------------------------------------------------------------------------------------------------
Component 0 (argon), current number of integer/fractional/reaction molecules: 383/0/0, density: 400.99155 [kg/m^3]
	absolute adsorption:  47.87500 [mol/uc],         5.8588 [mol/kg],            234.0475 [mg/g]
	                                               131.3191 [cm^3 STP/g],        224.9877 [cm^3 STP/cm^3]
	excess adsorption:    47.87500 [mol/uc],         5.8588 [mol/kg],            234.0475 [mg/g]
	                                               131.3191 [cm^3 STP/g],        224.9877 [cm^3 STP/cm^3]
----------------------------------------------------------------------------------------------------------------------------------------------------
Degrees of freedom: 1149 0 1149 0
Number of Framework-atoms:   3264
Number of Adsorbates:         383 (383 integer, 0 fractional, 0 reaction)
Number of Cations:              0 (0 integer, 0 fractional, 0 reaction

Current total potential energy:          -1187465.0489159795 [K]
	Current Host-Host energy:                     0.0000000000 [K]
	Current Host-Adsorbate energy:         -1165554.6935778921 [K]
	Current Host-Cation energy:                   0.0000000000 [K]
	Current Adsorbate-Adsorbate energy:      -21910.3553380799 [K]
	Current Cation-Cation energy:                 0.0000000000 [K]
	Current Adsorbate-Cation energy:              0.0000000000 [K]



[Init] Current cycle: 15000 out of 100000
========================================================================================================

Net charge: 0 (F: 0, A: 0, C: 0)
Current Box:  39.86600   0.00000   0.00000 [A]
               0.00000  39.86600   0.00000 [A]
               0.00000   0.00000  39.86600 [A]
Box-lengths:  39.86600  39.86600  39.86600 Box-angles:   90.00000  90.00000  90.00000 [degrees]
Volume: 63358.95231 [A^3]

Loadings per component:
----------------------------------------------------------------------------------------------------------------------------------------------------
Component 0 (argon), current number of integer/fractional/reaction molecules: 383/0/0, density: 400.99155 [kg/m^3]
	absolute adsorption:  47.87500 [mol/uc],         5.8588 [mol/kg],            234.0475 [mg/g]
	                                               131.3191 [cm^3 STP/g],        224.9877 [cm^3 STP/cm^3]
	excess adsorption:    47.87500 [mol/uc],         5.8588 [mol/kg],            234.0475 [mg/g]
	                                               131.3191 [cm^3 STP/g],        224.9877 [cm^3 STP/cm^3]
----------------------------------------------------------------------------------------------------------------------------------------------------
Degrees of freedom: 1149 0 1149 0
Number of Framework-atoms:   3264
Number of Adsorbates:         383 (383 integer, 0 fractional, 0 reaction)
Number of Cations:              0 (0 integer, 0 fractional, 0 reaction

Current total potential energy:          -1184692.3387814839 [K]
	Current Host-Host energy:                     0.0000000000 [K]
	Current Host-Adsorbate energy:         -1161977.3122889060 [K]
	Current Host-Cation energy:                   0.0000000000 [K]
	Current Adsorbate-Adsorbate energy:      -22715.0264925504 [K]
	Current Cation-Cation energy:                 0.0000000000 [K]
	Current Adsorbate-Cation energy:              0.0000000000 [K]



[Init] Current cycle: 16000 out of 100000
========================================================================================================

Net charge: 0 (F: 0, A: 0, C: 0)
Current Box:  39.86600   0.00000   0.00000 [A]
               0.00000  39.86600   0.00000 [A]
               0.00000   0.00000  39.86600 [A]
Box-lengths:  39.86600  39.86600  39.86600 Box-angles:   90.00000  90.00000  90.00000 [degrees]
Volume: 63358.95231 [A^3]

Loadings per component:
----------------------------------------------------------------------------------------------------------------------------------------------------
Component 0 (argon), current number of integer/fractional/reaction molecules: 383/0/0, density: 400.99155 [kg/m^3]
	absolute adsorption:  47.87500 [mol/uc],         5.8588 [mol/kg],            234.0475 [mg/g]
	                                               131.3191 [cm^3 STP/g],        224.9877 [cm^3 STP/cm^3]
	excess adsorption:    47.87500 [mol/uc],         5.8588 [mol/kg],            234.0475 [mg/g]
	                                               131.3191 [cm^3 STP/g],        224.9877 [cm^3 STP/cm^3]
----------------------------------------------------------------------------------------------------------------------------------------------------
Degrees of freedom: 1149 0 1149 0
Number of Framework-atoms:   3264
Number of Adsorbates:         383 (383 integer, 0 fractional, 0 reaction)
Number of Cations:              0 (0 integer, 0 fractional, 0 reaction

Current total potential energy:          -1185882.3803341521 [K]
	Current Host-Host energy:                     0.0000000000 [K]
	Current Host-Adsorbate energy:         -1164179.7137872986 [K]
	Current Host-Cation energy:                   0.0000000000 [K]
	Current Adsorbate-Adsorbate energy:      -21702.6665468350 [K]
	Current Cation-Cation energy:                 0.0000000000 [K]
	Current Adsorbate-Cation energy:              0.0000000000 [K]



[Init] Current cycle: 17000 out of 100000
========================================================================================================

Net charge: 0 (F: 0, A: 0, C: 0)
Current Box:  39.86600   0.00000   0.00000 [A]
               0.00000  39.86600   0.00000 [A]
               0.00000   0.00000  39.86600 [A]
Box-lengths:  39.86600  39.86600  39.86600 Box-angles:   90.00000  90.00000  90.00000 [degrees]
Volume: 63358.95231 [A^3]

Loadings per component:
----------------------------------------------------------------------------------------------------------------------------------------------------
Component 0 (argon), current number of integer/fractional/reaction molecules: 383/0/0, density: 400.99155 [kg/m^3]
	absolute adsorption:  47.87500 [mol/uc],         5.8588 [mol/kg],            234.0475 [mg/g]
	                                               131.3191 [cm^3 STP/g],        224.9877 [cm^3 STP/cm^3]
	excess adsorption:    47.87500 [mol/uc],         5.8588 [mol/kg],            234.0475 [mg/g]
	                                               131.3191 [cm^3 STP/g],        224.9877 [cm^3 STP/cm^3]
----------------------------------------------------------------------------------------------------------------------------------------------------
Degrees of freedom: 1149 0 1149 0
Number of Framework-atoms:   3264
Number of Adsorbates:         383 (383 integer, 0 fractional, 0 reaction)
Number of Cations:              0 (0 integer, 0 fractional, 0 reaction

Current total potential energy:          -1185198.7302255679 [K]
	Current Host-Host energy:                     0.0000000000 [K]
	Current Host-Adsorbate energy:         -1162754.3892053589 [K]
	Current Host-Cation energy:                   0.0000000000 [K]
	Current Adsorbate-Adsorbate energy:      -22444.3410201702 [K]
	Current Cation-Cation energy:                 0.0000000000 [K]
	Current Adsorbate-Cation energy:              0.0000000000 [K]



[Init] Current cycle: 18000 out of 100000
========================================================================================================

Net charge: 0 (F: 0, A: 0, C: 0)
Current Box:  39.86600   0.00000   0.00000 [A]
               0.00000  39.86600   0.00000 [A]
               0.00000   0.00000  39.86600 [A]
Box-lengths:  39.86600  39.86600  39.86600 Box-angles:   90.00000  90.00000  90.00000 [degrees]
Volume: 63358.95231 [A^3]

Loadings per component:
----------------------------------------------------------------------------------------------------------------------------------------------------
Component 0 (argon), current number of integer/fractional/reaction molecules: 383/0/0, density: 400.99155 [kg/m^3]
	absolute adsorption:  47.87500 [mol/uc],         5.8588 [mol/kg],            234.0475 [mg/g]
	                                               131.3191 [cm^3 STP/g],        224.9877 [cm^3 STP/cm^3]
	excess adsorption:    47.87500 [mol/uc],         5.8588 [mol/kg],            234.0475 [mg/g]
	                                               131.3191 [cm^3 STP/g],        224.9877 [cm^3 STP/cm^3]
----------------------------------------------------------------------------------------------------------------------------------------------------
Degrees of freedom: 1149 0 1149 0
Number of Framework-atoms:   3264
Number of Adsorbates:         383 (383 integer, 0 fractional, 0 reaction)
Number of Cations:              0 (0 integer, 0 fractional, 0 reaction

Current total potential energy:          -1187588.2561624181 [K]
	Current Host-Host energy:                     0.0000000000 [K]
	Current Host-Adsorbate energy:         -1162492.9721193430 [K]
	Current Host-Cation energy:                   0.0000000000 [K]
	Current Adsorbate-Adsorbate energy:      -25095.2840430336 [K]
	Current Cation-Cation energy:                 0.0000000000 [K]
	Current Adsorbate-Cation energy:              0.0000000000 [K]



[Init] Current cycle: 19000 out of 100000
========================================================================================================

Net charge: 0 (F: 0, A: 0, C: 0)
Current Box:  39.86600   0.00000   0.00000 [A]
               0.00000  39.86600   0.00000 [A]
               0.00000   0.00000  39.86600 [A]
Box-lengths:  39.86600  39.86600  39.86600 Box-angles:   90.00000  90.00000  90.00000 [degrees]
Volume: 63358.95231 [A^3]

Loadings per component:
----------------------------------------------------------------------------------------------------------------------------------------------------
Component 0 (argon), current number of integer/fractional/reaction molecules: 384/0/0, density: 402.03853 [kg/m^3]
	absolute adsorption:  48.00000 [mol/uc],         5.8741 [mol/kg],            234.6585 [mg/g]
	                                               131.6619 [cm^3 STP/g],        225.5751 [cm^3 STP/cm^3]
	excess adsorption:    48.00000 [mol/uc],         5.8741 [mol/kg],            234.6585 [mg/g]
	                                               131.6619 [cm^3 STP/g],        225.5751 [cm^3 STP/cm^3]
----------------------------------------------------------------------------------------------------------------------------------------------------
Degrees of freedom: 1152 0 1152 0
Number of Framework-atoms:   3264
Number of Adsorbates:         384 (384 integer, 0 fractional, 0 reaction)
Number of Cations:              0 (0 integer, 0 fractional, 0 reaction

Current total potential energy:          -1187672.2338524903 [K]
	Current Host-Host energy:                     0.0000000000 [K]
	Current Host-Adsorbate energy:         -1159567.7312382294 [K]
	Current Host-Cation energy:                   0.0000000000 [K]
	Current Adsorbate-Adsorbate energy:      -28104.5026142410 [K]
	Current Cation-Cation energy:                 0.0000000000 [K]
	Current Adsorbate-Cation energy:              0.0000000000 [K]



[Init] Current cycle: 20000 out of 100000
========================================================================================================

Net charge: 0 (F: 0, A: 0, C: 0)
Current Box:  39.86600   0.00000   0.00000 [A]
               0.00000  39.86600   0.00000 [A]
               0.00000   0.00000  39.86600 [A]
Box-lengths:  39.86600  39.86600  39.86600 Box-angles:   90.00000  90.00000  90.00000 [degrees]
Volume: 63358.95231 [A^3]

Loadings per component:
----------------------------------------------------------------------------------------------------------------------------------------------------
Component 0 (argon), current number of integer/fractional/reaction molecules: 383/0/0, density: 400.99155 [kg/m^3]
	absolute adsorption:  47.87500 [mol/uc],         5.8588 [mol/kg],            234.0475 [mg/g]
	                                               131.3191 [cm^3 STP/g],        224.9877 [cm^3 STP/cm^3]
	excess adsorption:    47.87500 [mol/uc],         5.8588 [mol/kg],            234.0475 [mg/g]
	                                               131.3191 [cm^3 STP/g],        224.9877 [cm^3 STP/cm^3]
----------------------------------------------------------------------------------------------------------------------------------------------------
Degrees of freedom: 1149 0 1149 0
Number of Framework-atoms:   3264
Number of Adsorbates:         383 (383 integer, 0 fractional, 0 reaction)
Number of Cations:              0 (0 integer, 0 fractional, 0 reaction

Current total potential energy:          -1189568.3641928388 [K]
	Current Host-Host energy:                     0.0000000000 [K]
	Current Host-Adsorbate energy:         -1163090.2028620683 [K]
	Current Host-Cation energy:                   0.0000000000 [K]
	Current Adsorbate-Adsorbate energy:      -26478.1613307389 [K]
	Current Cation-Cation energy:                 0.0000000000 [K]
	Current Adsorbate-Cation energy:              0.0000000000 [K]



[Init] Current cycle: 21000 out of 100000
[...]
	Block[ 1]            0.00000 [K]
	Block[ 2]            0.00000 [K]
	Block[ 3]            0.00000 [K]
	Block[ 4]            0.00000 [K]
	------------------------------------------------------------------------------
	Average              0.00000 [K] +/-            0.00000 [K]

Average Cation Bend angle inversion energy:
===========================================
	Block[ 0]            0.00000 [K]
	Block[ 1]            0.00000 [K]
	Block[ 2]            0.00000 [K]
	Block[ 3]            0.00000 [K]
	Block[ 4]            0.00000 [K]
	------------------------------------------------------------------------------
	Average              0.00000 [K] +/-            0.00000 [K]

Average Cation Torsion energy:
==============================
	Block[ 0]            0.00000 [K]
	Block[ 1]            0.00000 [K]
	Block[ 2]            0.00000 [K]
	Block[ 3]            0.00000 [K]
	Block[ 4]            0.00000 [K]
	------------------------------------------------------------------------------
	Average              0.00000 [K] +/-            0.00000 [K]

Average Cation Improper Torsion energy:
=======================================
	Block[ 0]            0.00000 [K]
	Block[ 1]            0.00000 [K]
	Block[ 2]            0.00000 [K]
	Block[ 3]            0.00000 [K]
	Block[ 4]            0.00000 [K]
	------------------------------------------------------------------------------
	Average              0.00000 [K] +/-            0.00000 [K]

Average Cation Bond-Bond cross term energy:
=================================================
	Block[ 0]            0.00000 [K]
	Block[ 1]            0.00000 [K]
	Block[ 2]            0.00000 [K]
	Block[ 3]            0.00000 [K]
	Block[ 4]            0.00000 [K]
	------------------------------------------------------------------------------
	Average              0.00000 [K] +/-            0.00000 [K]

Average Cation Bend-Bend cross term energy:
===========================================
	Block[ 0]            0.00000 [K]
	Block[ 1]            0.00000 [K]
	Block[ 2]            0.00000 [K]
	Block[ 3]            0.00000 [K]
	Block[ 4]            0.00000 [K]
	------------------------------------------------------------------------------
	Average              0.00000 [K] +/-            0.00000 [K]

Average Cation Bond-Bend cross term energy:
==============================================
	Block[ 0]            0.00000 [K]
	Block[ 1]            0.00000 [K]
	Block[ 2]            0.00000 [K]
	Block[ 3]            0.00000 [K]
	Block[ 4]            0.00000 [K]
	------------------------------------------------------------------------------
	Average              0.00000 [K] +/-            0.00000 [K]

Average Cation Bond-Torsion cross term energy:
==============================================
	Block[ 0]            0.00000 [K]
	Block[ 1]            0.00000 [K]
	Block[ 2]            0.00000 [K]
	Block[ 3]            0.00000 [K]
	Block[ 4]            0.00000 [K]
	------------------------------------------------------------------------------
	Average              0.00000 [K] +/-            0.00000 [K]

Average Cation Bend-Torsion cross term energy:
==============================================
	Block[ 0]            0.00000 [K]
	Block[ 1]            0.00000 [K]
	Block[ 2]            0.00000 [K]
	Block[ 3]            0.00000 [K]
	Block[ 4]            0.00000 [K]
	------------------------------------------------------------------------------
	Average              0.00000 [K] +/-            0.00000 [K]

Average Cation Intra Van der Waals energy:
==========================================
	Block[ 0]            0.00000 [K]
	Block[ 1]            0.00000 [K]
	Block[ 2]            0.00000 [K]
	Block[ 3]            0.00000 [K]
	Block[ 4]            0.00000 [K]
	------------------------------------------------------------------------------
	Average              0.00000 [K] +/-            0.00000 [K]

Average Cation Intra charge-charge Coulomb energy:
====================================
	Block[ 0]            0.00000 [K]
	Block[ 1]            0.00000 [K]
	Block[ 2]            0.00000 [K]
	Block[ 3]            0.00000 [K]
	Block[ 4]            0.00000 [K]
	------------------------------------------------------------------------------
	Average              0.00000 [K] +/-            0.00000 [K]

Average Cation Intra charge-bonddipole Coulomb energy:
====================================
	Block[ 0]            0.00000 [K]
	Block[ 1]            0.00000 [K]
	Block[ 2]            0.00000 [K]
	Block[ 3]            0.00000 [K]
	Block[ 4]            0.00000 [K]
	------------------------------------------------------------------------------
	Average              0.00000 [K] +/-            0.00000 [K]

Average Cation Intra bonddipole-bonddipole Coulomb energy:
====================================
	Block[ 0]            0.00000 [K]
	Block[ 1]            0.00000 [K]
	Block[ 2]            0.00000 [K]
	Block[ 3]            0.00000 [K]
	Block[ 4]            0.00000 [K]
	------------------------------------------------------------------------------
	Average              0.00000 [K] +/-            0.00000 [K]

Average Host-Host energy:
=========================
	Block[ 0] 0.00000            Van der Waals: 0.00000            Coulomb: 0.00000            [K]
	Block[ 1] 0.00000            Van der Waals: 0.00000            Coulomb: 0.00000            [K]
	Block[ 2] 0.00000            Van der Waals: 0.00000            Coulomb: 0.00000            [K]
	Block[ 3] 0.00000            Van der Waals: 0.00000            Coulomb: 0.00000            [K]
	Block[ 4] 0.00000            Van der Waals: 0.00000            Coulomb: 0.00000            [K]
	------------------------------------------------------------------------------
	Average   0.00000            Van der Waals: 0.000000           Coulomb: 0.00000            [K]
	      +/- 0.00000                       +/- 0.000000                +/- 0.00000            [K]

Average Adsorbate-Adsorbate energy:
===================================
	Block[ 0] -26090.72696       Van der Waals: -26090.72696       Coulomb: 0.00000            [K]
	Block[ 1] -25950.50696       Van der Waals: -25950.50696       Coulomb: 0.00000            [K]
	Block[ 2] -25856.16206       Van der Waals: -25856.16206       Coulomb: 0.00000            [K]
	Block[ 3] -25874.87807       Van der Waals: -25874.87807       Coulomb: 0.00000            [K]
	Block[ 4] -25954.32347       Van der Waals: -25954.32347       Coulomb: 0.00000            [K]
	------------------------------------------------------------------------------
	Average   -25945.31950       Van der Waals: -25945.319503      Coulomb: 0.00000            [K]
	      +/- 165.31753                     +/- 165.317525              +/- 0.00000            [K]

Average Cation-Cation energy:
=============================
	Block[ 0] 0.00000            Van der Waals: 0.00000            Coulomb: 0.00000            [K]
	Block[ 1] 0.00000            Van der Waals: 0.00000            Coulomb: 0.00000            [K]
	Block[ 2] 0.00000            Van der Waals: 0.00000            Coulomb: 0.00000            [K]
	Block[ 3] 0.00000            Van der Waals: 0.00000            Coulomb: 0.00000            [K]
	Block[ 4] 0.00000            Van der Waals: 0.00000            Coulomb: 0.00000            [K]
	------------------------------------------------------------------------------
	Average   0.00000            Van der Waals: 0.000000           Coulomb: 0.00000            [K]
	      +/- 0.00000                       +/- 0.000000                +/- 0.00000            [K]

Average Host-Adsorbate energy:
==============================
	Block[ 0] -1166672.90841     Van der Waals: -1166672.90841     Coulomb: 0.00000            [K]
	Block[ 1] -1166916.15192     Van der Waals: -1166916.15192     Coulomb: 0.00000            [K]
	Block[ 2] -1167110.89044     Van der Waals: -1167110.89044     Coulomb: 0.00000            [K]
	Block[ 3] -1166931.90976     Van der Waals: -1166931.90976     Coulomb: 0.00000            [K]
	Block[ 4] -1167084.14404     Van der Waals: -1167084.14404     Coulomb: 0.00000            [K]
	------------------------------------------------------------------------------
	Average   -1166943.20091     Van der Waals: -1166943.200914    Coulomb: 0.00000            [K]
	      +/- 312.28438                     +/- 312.284382              +/- 0.00000            [K]

Average Host-Cation energy:
===========================
	Block[ 0] 0.00000            Van der Waals: 0.00000            Coulomb: 0.00000            [K]
	Block[ 1] 0.00000            Van der Waals: 0.00000            Coulomb: 0.00000            [K]
	Block[ 2] 0.00000            Van der Waals: 0.00000            Coulomb: 0.00000            [K]
	Block[ 3] 0.00000            Van der Waals: 0.00000            Coulomb: 0.00000            [K]
	Block[ 4] 0.00000            Van der Waals: 0.00000            Coulomb: 0.00000            [K]
	------------------------------------------------------------------------------
	Average   0.00000            Van der Waals: 0.000000           Coulomb: 0.00000            [K]
	      +/- 0.00000                       +/- 0.000000                +/- 0.00000            [K]

Average Adsorbate-Cation energy:
================================
	Block[ 0] 0.00000            Van der Waals: 0.00000            Coulomb: 0.00000            [K]
	Block[ 1] 0.00000            Van der Waals: 0.00000            Coulomb: 0.00000            [K]
	Block[ 2] 0.00000            Van der Waals: 0.00000            Coulomb: 0.00000            [K]
	Block[ 3] 0.00000            Van der Waals: 0.00000            Coulomb: 0.00000            [K]
	Block[ 4] 0.00000            Van der Waals: 0.00000            Coulomb: 0.00000            [K]
	------------------------------------------------------------------------------
	Average   0.00000            Van der Waals: 0.000000           Coulomb: 0.00000            [K]
	      +/- 0.00000                       +/- 0.000000                +/- 0.00000            [K]

Host polarization energy:
=======================
	Block[ 0]            0.00000 [K]
	Block[ 1]            0.00000 [K]
	Block[ 2]            0.00000 [K]
	Block[ 3]            0.00000 [K]
	Block[ 4]            0.00000 [K]
	------------------------------------------------------------------------------
	Average              0.00000 [K] +/-            0.00000 [K]

Adsorbate polarization energy:
=======================
	Block[ 0]            0.00000 [K]
	Block[ 1]            0.00000 [K]
	Block[ 2]            0.00000 [K]
	Block[ 3]            0.00000 [K]
	Block[ 4]            0.00000 [K]
	------------------------------------------------------------------------------
	Average              0.00000 [K] +/-            0.00000 [K]

Cation polarization energy:
=======================
	Block[ 0]            0.00000 [K]
	Block[ 1]            0.00000 [K]
	Block[ 2]            0.00000 [K]
	Block[ 3]            0.00000 [K]
	Block[ 4]            0.00000 [K]
	------------------------------------------------------------------------------
	Average              0.00000 [K] +/-            0.00000 [K]

Host back-polarization energy:
=======================
	Block[ 0]            0.00000 [K]
	Block[ 1]            0.00000 [K]
	Block[ 2]            0.00000 [K]
	Block[ 3]            0.00000 [K]
	Block[ 4]            0.00000 [K]
	------------------------------------------------------------------------------
	Average              0.00000 [K] +/-            0.00000 [K]

Adsorbate back-polarization energy:
=======================
	Block[ 0]            0.00000 [K]
	Block[ 1]            0.00000 [K]
	Block[ 2]            0.00000 [K]
	Block[ 3]            0.00000 [K]
	Block[ 4]            0.00000 [K]
	------------------------------------------------------------------------------
	Average              0.00000 [K] +/-            0.00000 [K]

Cation back-polarization energy:
=======================
	Block[ 0]            0.00000 [K]
	Block[ 1]            0.00000 [K]
	Block[ 2]            0.00000 [K]
	Block[ 3]            0.00000 [K]
	Block[ 4]            0.00000 [K]
	------------------------------------------------------------------------------
	Average              0.00000 [K] +/-            0.00000 [K]

Tail-correction energy:
=======================
	Block[ 0]            0.00000 [K]
	Block[ 1]            0.00000 [K]
	Block[ 2]            0.00000 [K]
	Block[ 3]            0.00000 [K]
	Block[ 4]            0.00000 [K]
	------------------------------------------------------------------------------
	Average              0.00000 [K] +/-            0.00000 [K]

Distance-constraints energy:
=======================
	Block[ 0]            0.00000 [K]
	Block[ 1]            0.00000 [K]
	Block[ 2]            0.00000 [K]
	Block[ 3]            0.00000 [K]
	Block[ 4]            0.00000 [K]
	------------------------------------------------------------------------------
	Average              0.00000 [K] +/-            0.00000 [K]

Angle-constraints energy:
=======================
	Block[ 0]            0.00000 [K]
	Block[ 1]            0.00000 [K]
	Block[ 2]            0.00000 [K]
	Block[ 3]            0.00000 [K]
	Block[ 4]            0.00000 [K]
	------------------------------------------------------------------------------
	Average              0.00000 [K] +/-            0.00000 [K]

Dihedral-constraints energy:
=======================
	Block[ 0]            0.00000 [K]
	Block[ 1]            0.00000 [K]
	Block[ 2]            0.00000 [K]
	Block[ 3]            0.00000 [K]
	Block[ 4]            0.00000 [K]
	------------------------------------------------------------------------------
	Average              0.00000 [K] +/-            0.00000 [K]

Inversion-bend constraints energy:
=======================
	Block[ 0]            0.00000 [K]
	Block[ 1]            0.00000 [K]
	Block[ 2]            0.00000 [K]
	Block[ 3]            0.00000 [K]
	Block[ 4]            0.00000 [K]
	------------------------------------------------------------------------------
	Average              0.00000 [K] +/-            0.00000 [K]

Out-of-plane-distance constraints energy:
=======================
	Block[ 0]            0.00000 [K]
	Block[ 1]            0.00000 [K]
	Block[ 2]            0.00000 [K]
	Block[ 3]            0.00000 [K]
	Block[ 4]            0.00000 [K]
	------------------------------------------------------------------------------
	Average              0.00000 [K] +/-            0.00000 [K]

Exclusion-constraints energy:
=======================
	Block[ 0]            0.00000 [K]
	Block[ 1]            0.00000 [K]
	Block[ 2]            0.00000 [K]
	Block[ 3]            0.00000 [K]
	Block[ 4]            0.00000 [K]
	------------------------------------------------------------------------------
	Average              0.00000 [K] +/-            0.00000 [K]

Total energy:
=============
	Block[ 0]     -1192763.63537 [K]
	Block[ 1]     -1192866.65888 [K]
	Block[ 2]     -1192967.05250 [K]
	Block[ 3]     -1192806.78782 [K]
	Block[ 4]     -1193038.46751 [K]
	------------------------------------------------------------------------------
	Average       -1192888.52042 [K] +/-          202.79218 [K]

Number of molecules:
====================

Component 0 [argon]
-------------------------------------------------------------
	Block[ 0] 383.99055          [-]
	Block[ 1] 384.00000          [-]
	Block[ 2] 384.00000          [-]
	Block[ 3] 384.00000          [-]
	Block[ 4] 384.00000          [-]
	------------------------------------------------------------------------------
	Average                                    383.9981100000 +/-       0.0075600024 [-]
	Average loading absolute [molecules/unit cell]       47.9997637500 +/-       0.0009450003 [-]
	Average loading absolute [mol/kg framework]          5.8740709193 +/-       0.0001156464 [-]
	Average loading absolute [milligram/gram framework]        234.6573850853 +/-       0.0046198415 [-]
	Average loading absolute [cm^3 (STP)/gr framework]        131.6612831255 +/-       0.0025920951 [-]
	Average loading absolute [cm^3 (STP)/cm^3 framework]        225.5739818461 +/-       0.0044410110 [-]

	Block[ 0] 383.99055          [-]
	Block[ 1] 384.00000          [-]
	Block[ 2] 384.00000          [-]
	Block[ 3] 384.00000          [-]
	Block[ 4] 384.00000          [-]
	------------------------------------------------------------------------------
	Average                                    383.9981100000 +/-       0.0075600024 [-]
	Average loading excess [molecules/unit cell]       47.9997637500 +/-       0.0009450003 [-]
	Average loading excess [mol/kg framework]          5.8740709193 +/-       0.0001156464 [-]
	Average loading excess [milligram/gram framework]        234.6573850853 +/-       0.0046198415 [-]
	Average loading excess [cm^3 (STP)/gr framework]        131.6612831255 +/-       0.0025920951 [-]
	Average loading excess [cm^3 (STP)/cm^3 framework]        225.5739818461 +/-       0.0044410110 [-]


Average Widom Rosenbluth factor:
================================
	Block[ 0] 0 [-]
	Block[ 1] 0 [-]
	Block[ 2] 0 [-]
	Block[ 3] 0 [-]
	Block[ 4] 0 [-]
	------------------------------------------------------------------------------
	[argon] Average Widom Rosenbluth-weight:   0 +/- 0.000000 [-]

Average Widom chemical potential:
=================================
	Block[ 0] 0 [-]
	Block[ 1] 0 [-]
	Block[ 2] 0 [-]
	Block[ 3] 0 [-]
	Block[ 4] 0 [-]
	------------------------------------------------------------------------------
	[argon] Average chemical potential:   0 +/- 0.000000 [K]

Average Widom Ideal-gas contribution:
=====================================
	Block[ 0] 0 [-]
	Block[ 1] 0 [-]
	Block[ 2] 0 [-]
	Block[ 3] 0 [-]
	Block[ 4] 0 [-]
	------------------------------------------------------------------------------
	[argon] Average Widom Ideal-gas chemical potential:   0 +/- 0.000000 [-]

Average Widom excess contribution:
==================================
	Block[ 0] 0 [-]
	Block[ 1] 0 [-]
	Block[ 2] 0 [-]
	Block[ 3] 0 [-]
	Block[ 4] 0 [-]
	------------------------------------------------------------------------------
	[argon] Average Widom excess chemical potential:   0 +/- 0.000000 [-]

Average Gibbs Widom Rosenbluth factor:
======================================
	Block[ 0] 0 [-]
	Block[ 1] 0 [-]
	Block[ 2] 0 [-]
	Block[ 3] 0 [-]
	Block[ 4] 0 [-]
	------------------------------------------------------------------------------
	[argon] Average Gibbs Widom Rosenbluth-weight:   0 +/- 0.000000 [-]

Average Gibbs Widom chemical potential:
=======================================
	Block[ 0] 0 [-]
	Block[ 1] 0 [-]
	Block[ 2] 0 [-]
	Block[ 3] 0 [-]
	Block[ 4] 0 [-]
	------------------------------------------------------------------------------
	[argon] Average Gibbs chemical potential:   0 +/- 0.000000 [K]

Average Gibbs Widom Ideal-gas contribution:
===========================================
	Block[ 0] 0 [-]
	Block[ 1] 0 [-]
	Block[ 2] 0 [-]
	Block[ 3] 0 [-]
	Block[ 4] 0 [-]
	------------------------------------------------------------------------------
	[argon] Average Gibbs Ideal-gas chemical potential:   0 +/- 0.000000 [-]

Average Gibbs Widom excess contribution:
===========================================
	Block[ 0] 0 [-]
	Block[ 1] 0 [-]
	Block[ 2] 0 [-]
	Block[ 3] 0 [-]
	Block[ 4] 0 [-]
	------------------------------------------------------------------------------
	[argon] Average Gibbs excess chemical potential:   0 +/- 0.000000 [-]

Average Henry coefficient:
==========================
	Block[ 0] 0 [mol/kg/Pa]
	Block[ 1] 0 [mol/kg/Pa]
	Block[ 2] 0 [mol/kg/Pa]
	Block[ 3] 0 [mol/kg/Pa]
	Block[ 4] 0 [mol/kg/Pa]
	------------------------------------------------------------------------------
	[argon] Average Henry coefficient:  0 +/- 0 [mol/kg/Pa]

Average adsorption energy <U_gh>_1-<U_h>_0 obtained from Widom-insertion:
(Note: the total heat of adsorption is dH=<U_gh>_1-<U_h>_0 - <U_g> - RT)
=========================================================================

Simulation finished,  0 warnings


Mon Jun  7 19:00:43 2021
Simulation finished on Monday, June 07.
The end time was 07:00 PM.

