Compiler and run-time data
===========================================================================
RASPA 2.0.37
Compiled as a 64-bits application
Compiler: gcc Intel(R) C++ gcc 4.8.5 mode
Compile Date = May 12 2020, Compile Time = 18:40:55

Sun Jun  6 21:32:21 2021
Simulation started on Sunday, June 06.
The start time was 09:32 PM.

Hostname:    The start time was 09:32 PM.
OS type:     The start time was 09:32 PM.
OS release:  The start time was 09:32 PM.
OS version:  The start time was 09:32 PM.

Simulation
===========================================================================
Dimensions: 3
Random number seed: 1623011540
RASPA directory set to: /mnt/iusers01/ceas01/m86397ah/Installed_software/RASPA
String appended to output-files: 
Number of cycles: 100000
Number of initializing cycles: 100000
Number of equilibration cycles: 0
Print every: 1000
Triclinic boundary condition applied
Timestep: 0.000500
	Degrees of freedom:                        0
	Translational Degrees of freedom:          0
	Rotational Degrees of freedom:             0
	Degrees of freedom Framework:              0


Mutual consistent basic set of units:
======================================
Unit of temperature: Kelvin
Unit of length:      1e-10 [m]
Unit of time:        1e-12 [s]
Unit of mass:        1.66054e-27 [kg]
Unit of charge:      1.60218e-19 [C/particle]

Derived units and their conversion factors:
===========================================
Unit of energy:              1.66054e-23 [J]
Unit of force:               1.66054e-13 [N]
Unit of pressure:            1.66054e+07 [Pa]
Unit of velocity:            100 [m/s]
Unit of acceleration:        1e-08 [m^2/s]
Unit of diffusion:           1e-08 [m^2/s]
Unit of dipole moment:       1.60218e-29 [C.m]
Unit of electric potential:  0.000103643 [V]
Unit of electric field:      1.03643e+06 [V]
Unit of polarizability:      1.54587e-35 [-]
Unit of Coulomb potential:   167101.0800066561  [K]
Unit of dielectric constant: 0.0000154587       [s^2 C^2/(kg m^3)]
Unit of wave vectors:        5.3088374589       [cm^1]
Boltzmann constant:          0.8314464919       [-]

Internal conversion factors:
===========================================
Energy to Kelvin:                                    1.2027242847
FH correction factor                                 2.0211930949
Heat capacity conversion factor:                    10.0000088723
From Debye to internal units:                        4.8032067991
Isothermal compressibility conversion factor:        0.0000000602

Energy conversion factors:
===========================================
From mdyne/A to kcal/mol/A^2:           143.933
From mdyne/A to kj/mol/A^2:             602.214
From mdyne/A to K/A^2:                  72429.7
From mdyne A/rad^2 to kcal/mol/deg^2:   0.0438444


Properties computed
===========================================================================
Movies: yes
	Movie snapshots are appended to file every 1000 cycles
Radial Distribution Function: no
Number of molecules GCMC histogram: no
Histogram of the molecule positions: no
Free energy profiles: no
Pore Size Distribution Function: no
End-to-end distance: no
Histogram of the energy of the system: no
Compute thermodynamic factors: no
Framework spacing histograms: no
Residence times histograms: no
Distance histograms: no
Bend Angle histograms: no
Dihedral angle histograms: no
Angle between planes histograms: no
Molecule properties: no
Infra-red spectra: no
Mean-squared displacement using modified order-N algorithm: no
Velocity-autocorrelation function modified order-N algorithm: no
Rotational velocity-autocorrelation function modified order-N algorithm: no
Molecular orientation-autocorrelation function modified order-N algorithm: no
Bond orientation-autocorrelation function modified order-N algorithm: no
Mean-squared displacement (conventional algorithm): no
Velocity-autocorrelation function (conventional algorithm): no
3D density grid for adsorbates: no
Compute cation an/or adsorption sites: no
dcTST snapshots: no
Compute pressure and stress: no


VTK
===========================================================================
VTK fractional-range position framework atoms: [-0.001000,1.001000] [-0.001000,1.001000] [-0.001000,1.001000]
VTK fractional-range position framework bonds: [-0.151000,1.151000] [-0.151000,1.151000] [-0.151000,1.151000]
VTK fractional-range com-position adsorbate molecules: [-0.101000,1.101000] [-0.101000,1.101000] [-0.101000,1.101000]
VTK fractional-range com-position cation molecules: [-0.101000,1.101000] [-0.101000,1.101000] [-0.101000,1.101000]
	3D free energy grid made for the full simulation-cell


Thermo/Baro-stat NHC parameters
===========================================================================
External temperature: 87 [K]
Beta: 0.0138244 [energy unit]
External Pressure: 101325 [Pa]


Thermostat chain-length: 3
Timescale parameter for thermostat: 0.150000 [ps]
Barostat chain-length:   3
Timescale parameter for barostat:   0.150000 [ps]

Number of Yoshida-Suzuki decomposition steps: 5
Number of respa steps: 5


Method and settings for electrostatics
===============================================================================
Dielectric constant of the medium : 1.000000
Charge from charge-equilibration: no
Ewald summation is used (exact solution of a periodic system)
Relative precision                : 1e-06
Alpha convergence parameter       : 0.265058
kvec (x,y,z)                      : 10 10 10


CFC-RXMC parameters
===========================================================================
Number of reactions: 0


Rattle parameters
===========================================================================
Distance constraint type: r^2-r^2_0
Bend angle constraint type: theta-theta_0
Dihedral angle constraint type: phi-phi_0
Inversion-bend angle constraint type: chi-chi_0
Out-of-plane distance constraint type: r-r_0


Spectra parameters
===========================================================================
Compute normal modes: no


Minimization parameters
===========================================================================
Generalized coordinates are: Cartesian center-of-mass, elements of the orientational matrix p1,p2,p3 and strain
Potential derivatives are evaluated: analytically
Translation of the system is removed from the generalized Hessian: no
Rotation of the system is removed from the generalized Hessian: no
Maximum step-length: 0.3
Convergence factor: 1
Maximum number of minimization steps: 10000
Use gradients in the line-minimizations: yes
RMS gradient tolerance: 1e-06
Maximum gradient tolerance: 1e-06

Distance constraints: 0
Angle constraints: 0
Dihedral constraints: 0

Improper dihedral constraints: 0

Inversion-bend constraints: 0

Out-of-plane constraints: 0

Harmonic distance constraints: 0
Harmonic angle constraints: 0
Harmonic dihedral constraints: 0

Dihedral mid-point measurements: 0

All framework atoms are fixed

Fixed adsorbate atoms:  
Fixed adsorbate groups (center-of-mass):  
Fixed adsorbate groups (orientation):  

Fixed cation atoms:  
Fixed cation groups (center-of-mass):  
Fixed cation groups (orientation):  


dcTST parameters
===========================================================================
Free energy profiles computed: no
Free energy profiles written every 5000 cycles
Free energy mapping: mapped to a,b,c-coordinates
BarrierPosition:       0.0000000000       0.0000000000       0.0000000000
BarrierNormal:         0.0000000000       0.0000000000       0.0000000000
Start with a molecule on top of the barrier: no
Maximum distance to barrier (e.g. distance to minumum free energy):       0.0000000000 [A]
Maximum trajectory time:      10.0000000000 [ps]
Each configuration is used with 5 different initial velocities


Cbmc parameters
===========================================================================
Biasing method: using only the VDW part
Number of trial positions:                                       10
Number of trial positions (reinsertion):                         10
Number of trial positions (partial reinsertion):                 10
Number of trial positions (identity-change):                     10
Number of trial positions (Gibbs particle transfer):             10
Number of trial positions (insertion/deletion):                  10
Number of trial positions (Widom insertion):                     10
Number of trial positions coupled Torsion-selection:             100
Number of trial positions first bead:                            10
Number of trial positions first bead (reinsertion):              10
Number of trial positions first bead (partial reinsertion):      10
Number of trial positions first bead (identity-change):          10
Number of trial positions first bead (Gibbs particle transfer):  10
Number of trial positions first bead (insertion/deletion):       10
Number of trial positions first bead (Widom insertion):          10
Number of trial moves per open bead:                             150
Target acceptance ratio small-mc scheme:                         0.400000
Energy overlap criteria:                                         1e+07
Minimal Rosenbluth factor:                                       1e-150


Pseudo atoms: 7
===========================================================================
Pseudo Atom[   0] Name UNIT     Oxidation:          Element: H    pdb-name: H    Scat. Types:   1   1 Mass=1.000000000  B-factor:0.000   
                 Charge=1.000000000          Polarization=0.000000000  [A^3] (considered a charged atom and no polarization)  Interactions: yes
                 Anisotropic factor:    0.000 [-] (Absolute), Radius:    1.000 [A], Framework-atom:  no
Pseudo Atom[   1] Name DUMMY    Oxidation: +0       Element: H    pdb-name: H    Scat. Types:   1   1 Mass=1.000000000  B-factor:1.000   
                 Charge=0.000000000          Polarization=0.000000000  [A^3] (considered a chargeless atom and no polarization)  Interactions:  no
                 Anisotropic factor:    0.000 [-] (Absolute), Radius:    1.000 [A], Framework-atom:  no
Pseudo Atom[   2] Name He       Oxidation: +0       Element: He   pdb-name: He   Scat. Types:   3   2 Mass=4.002602000  B-factor:1.000   
                 Charge=0.000000000          Polarization=0.000000000  [A^3] (considered a chargeless atom and no polarization)  Interactions: yes
                 Anisotropic factor:    0.000 [-] (Absolute), Radius:    1.000 [A], Framework-atom:  no
Pseudo Atom[   3] Name Ar       Oxidation: +0       Element: Ar   pdb-name: Ar   Scat. Types:  19  18 Mass=39.948000000 B-factor:1.000   
                 Charge=0.000000000          Polarization=0.000000000  [A^3] (considered a chargeless atom and no polarization)  Interactions: yes
                 Anisotropic factor:    0.000 [-] (Absolute), Radius:    1.000 [A], Framework-atom:  no
Pseudo Atom[   4] Name T        Oxidation: +0       Element: Si   pdb-name: Si   Scat. Types:  15  14 Mass=28.085500000 B-factor:1.000   
                 Charge=0.000000000          Polarization=0.000000000  [A^3] (considered a chargeless atom and no polarization)  Interactions: yes
                 Anisotropic factor:    0.000 [-] (Absolute), Radius:    1.180 [A], Framework-atom: yes (charge from pseudo-atoms file)
Pseudo Atom[   5] Name Al       Oxidation: +0       Element: Al   pdb-name: Al   Scat. Types:  14  13 Mass=26.981539000 B-factor:1.000   
                 Charge=0.000000000          Polarization=0.000000000  [A^3] (considered a chargeless atom and no polarization)  Interactions: yes
                 Anisotropic factor:    0.000 [-] (Absolute), Radius:    1.180 [A], Framework-atom:  no
Pseudo Atom[   6] Name O        Oxidation: +0       Element: O    pdb-name: O    Scat. Types:   9   8 Mass=15.999400000 B-factor:1.000   
                 Charge=0.000000000          Polarization=0.000000000  [A^3] (considered a chargeless atom and no polarization)  Interactions: yes
                 Anisotropic factor:    0.000 [-] (Absolute), Radius:    0.500 [A], Framework-atom: yes (charge from pseudo-atoms file)


Forcefield: local
===========================================================================
Minimal distance: 1
CutOff VDW : 12.800000 (163.840000)
CutOff VDW switching on: 11.520000 (132.710400)
CutOff charge-charge : 12.000000 (144.000000)
CutOff charge-charge switching on: 7.800000 (60.840000)
CutOff charge-bonddipole : 12.000000 (144.000000)
CutOff charge-bondipole switching on: 8.400000 (70.560000)
CutOff bonddipole-bonddipole : 12.000000 (144.000000)
CutOff bonddipole-bondipole switching on: 9.000000 (81.000000)
Polarization is neglected
All potentials are unshifted !!!!!!

General mixing rule: Lorentz-Berthelot mixing rules are used FIRST for cross terms
0 cross terms are overwritten using the individual mixing rules from the file 'force_field_mixing_rules.def'
and then 0 terms are overwritten using the specific interactions from the file 'force_field.def'

The force field and all the interactions:
     He -      He [LENNARD_JONES] p_0/k_B:  10.22000 [K], p_1: 2.58000 [A], shift/k_B:   0.00000000 [K], tailcorrection: no
     He -      Ar [LENNARD_JONES] p_0/k_B:  34.99080 [K], p_1: 2.99000 [A], shift/k_B:   0.00000000 [K], tailcorrection: no
     He -       T [LENNARD_JONES] p_0/k_B:  45.45298 [K], p_1: 3.20300 [A], shift/k_B:   0.00000000 [K], tailcorrection: no
     He -      Al [LENNARD_JONES] p_0/k_B:  50.94376 [K], p_1: 3.29400 [A], shift/k_B:   0.00000000 [K], tailcorrection: no
     He -       O [LENNARD_JONES] p_0/k_B:  17.56827 [K], p_1: 2.84900 [A], shift/k_B:   0.00000000 [K], tailcorrection: no
     Ar -      Ar [LENNARD_JONES] p_0/k_B: 119.80000 [K], p_1: 3.40000 [A], shift/k_B:   0.00000000 [K], tailcorrection: no
     Ar -       T [LENNARD_JONES] p_0/k_B: 155.61995 [K], p_1: 3.61300 [A], shift/k_B:   0.00000000 [K], tailcorrection: no
     Ar -      Al [LENNARD_JONES] p_0/k_B: 174.41907 [K], p_1: 3.70400 [A], shift/k_B:   0.00000000 [K], tailcorrection: no
     Ar -       O [LENNARD_JONES] p_0/k_B:  60.14948 [K], p_1: 3.25900 [A], shift/k_B:   0.00000000 [K], tailcorrection: no
      T -       T [LENNARD_JONES] p_0/k_B: 202.15000 [K], p_1: 3.82600 [A], shift/k_B:   0.00000000 [K], tailcorrection: no
      T -      Al [LENNARD_JONES] p_0/k_B: 226.57001 [K], p_1: 3.91700 [A], shift/k_B:   0.00000000 [K], tailcorrection: no
      T -       O [LENNARD_JONES] p_0/k_B:  78.13405 [K], p_1: 3.47200 [A], shift/k_B:   0.00000000 [K], tailcorrection: no
     Al -      Al [LENNARD_JONES] p_0/k_B: 253.94000 [K], p_1: 4.00800 [A], shift/k_B:   0.00000000 [K], tailcorrection: no
     Al -       O [LENNARD_JONES] p_0/k_B:  87.57276 [K], p_1: 3.56300 [A], shift/k_B:   0.00000000 [K], tailcorrection: no
      O -       O [LENNARD_JONES] p_0/k_B:  30.20000 [K], p_1: 3.11800 [A], shift/k_B:   0.00000000 [K], tailcorrection: no


MoleculeDefinitions:
===========================================================================
Component 0 [argon] (Adsorbate molecule)

	MoleculeDefinitions: argon
	Component contains no atoms with charge
	Component contains no atoms with point dipoles (polarization)
	Component has a net charge of 0.000000

	Ideal chain Rosenbluth weight: 1
	Ideal chain total energy: 0.000000

	Critical temparure [K]: 154.580000
	Critical pressure [Pa]: 5043000.000000
	Acentric factor [-]: 0.000000

	RXMC partition factor ln(q/V) [ln(A^(-3))]:       0.0000000000

	Liquid=stable, Vapour=metastable

	MolFraction:           1.0000000000 [-]
	Compressibility:       0.0034503778 [-]

	Density of the bulk fluid phase:    1621.7781374247 [kg/m^3]

	Binary mixture EOS parameters:  (0): 0.000000

	Amount of excess molecules:       0.0000000000 [-]

	Conversion factor molecules/unit cell -> mol/kg:       0.1733675297 [-]
	Conversion factor molecules/unit cell -> mg/g:       6.9256860777 [-]
	Conversion factor molecules/unit cell -> cm^3 STP/gr:       3.8858556068 [-]
	Conversion factor molecules/unit cell -> cm^3 STP/cm^3:       5.8045830675 [-]
	Conversion factor mol/kg -> cm^3 STP/gr:      22.4139757476 [-]
	Conversion factor mol/kg -> cm^3 STP/cm^3:      33.4813737989 [-]

	Partial pressure:    101325.00000000000000 [Pa]
	                        759.93750000000000 [Torr]
	                          1.01325000000000 [bar]
	                          1.00000000000000 [atm]

	Fugacity coefficient:       1.0000000000 [-]

	Partial fugacity:    101325.00000000000000 [Pa]
	                        759.93750000000000 [Torr]
	                          1.01325000000000 [bar]
	                          1.00000000000000 [atm]

	Molecule contains 1 number of atoms
		atom:    0  is of type:    3 [        Ar] (group: 0)

	Molecule contains 0 chirality centers

	Molecule contains 1 number of groups

		group: 0 containing: 1 elements
		-------------------------------------------------
		the group is modelled as flexible, i.e. no constraints
		Mass: 39.948000 [a.u.]
		Mass: 1.293175 [kg/m^3]

		Rotational Degrees of freedom: 0
		Diagonalized inertia vector:       0.0000000000
		                                   0.0000000000
		                                   0.0000000000
		element: 0 atom: 0 [        Ar] Charge:  0.000000 Anisotropy: 0.000000 Connectivity: 0 ()

		Dipole:           0.0000000000 [D]
		Quadrupole:       0.0000000000       0.0000000000       0.0000000000 [D Angstrom]
		Quadrupole tensor [D Angstrom]
				       0.0000000000       0.0000000000       0.0000000000
				       0.0000000000       0.0000000000       0.0000000000
				       0.0000000000       0.0000000000       0.0000000000

	Starting bead for growth               : 0

	Degrees of freedom                     : 0
	Translational degrees of freedom       : 0
	Rotational degrees of freedom          : 0
	Vibrational degrees of freedom         : 0
	Constraint degrees of freedom          : 0

	Number of atoms                        : 1

	Number of constraint bonds             : 0
	Number of constraint bends             : 0
	Number of constraint inversion bends   : 0
	Number of constraint torsions          : 0
	Number of constraint improper torsions : 0
	Number of constraint improper torsions : 0

	Number of bonds                        : 0
	Number of Urey-Bradleys                : 0
	Number of bends                        : 0
	Number of inversion bends              : 0
	Number of torsions                     : 0
	Number of improper torsions            : 0
	Number of improper torsions            : 0

	Number of bond/bond cross terms        : 0
	Number of bond/bend cross terms        : 0
	Number of bend/bend cross terms        : 0
	Number of stretch/torsion cross terms  : 0
	Number of bend/torsion cross terms     : 0

	Number of charges                      : 0
	Number of bond-dipoles                 : 0

	Number of intra Van der Waals                             : 0
	Number of intra charge-charge Coulomb                     : 0
	Number of intra charge-bonddipole Coulomb                 : 0
	Number of intra bonddipole-bonddipole Coulomb             : 0

	Number of excluded intra charge-charge Coulomb                     : 0
	Number of excluded intra charge-bonddipole Coulomb                 : 0
	Number of excluded intra bonddipole-bonddipole Coulomb             : 0

	Number of cbmc-config moves                               : 0

	Particle Moves:             
		ProbabilityTranslationMove:                  20.000000
			TranslationDirection:      XYZ
		Percentage of random translation moves:            0.000000
		Percentage of rotation moves:                      20.000000
		Percentage of random rotation moves:               0.000000
		Percentage of partial reinsertion moves:           0.000000
		Percentage of reinsertion moves:                   20.000000
		Percentage of reinsertion-in-place moves:          0.000000
		Percentage of reinsertion-in-plane moves:          0.000000
		Percentage of identity-change moves:               0.000000
		Percentage of swap (insert/delete) moves:          40.000000
		Percentage of CF swap lambda moves:                0.000000
		Percentage of CB/CFMC swap lambda moves:           0.000000
		Percentage of Widom insertion moves:               0.000000
		Percentage of CF-Widom insertion moves:            0.000000
		Percentage of Gibbs Widom insertion moves:         0.000000
		Percentage of surface-area moves:                  0.000000
		Percentage of Gibbs particle-transfer moves:       0.000000
		Percentage of Gibbs identity-change moves:         0.000000
		Percentage of CF Gibbs lambda-transfer moves:      0.000000
		Percentage of CB/CFMC Gibbs lambda-transfer moves: 0.000000
		Percentage of exchange frac./int. particle moves:  0.000000
		Percentage of fractional mol. to other box moves:  0.000000
		Percentage of lambda-change moves:                 0.000000
		Percentage of fractional to integer moves:         0.000000

	System Moves:
		Percentage of parallel-tempering moves:            0.000000
		Percentage of hyper-parallel-tempering moves:      0.000000
		Percentage of parallel-mol-fraction moves:         0.000000
			   Component A: 0 B: 1
		Percentage of chiral inversion moves:              0.000000
		Percentage of Hybrid-NVE moves:                    0.000000
		Percentage of Hybrid-NPH moves:                    0.000000
		Percentage of Hybrid-NPHPR moves:                  0.000000
		Percentage of volume-change moves:                 0.000000
		Percentage of box-shape-change moves:              0.000000
		Percentage of Gibbs volume-change moves:           0.000000
		Percentage of framework-change moves:              0.000000
		Percentage of framework-shift moves:               0.000000
		Percentage of reactive MC moves:                   0.000000

	Moves are restricted: No
	No biased sampling used for this component


	number of identity-config changes: 1
	--------------------------------------------
	nr fixed 1: 0 

	Number of pockets blocked in a unitcell: 0
		Pockets are NOT blocked for this component



Framework Status
===========================================================================
Lowenstein's rule obeyed by framework
	Framework is modelled as: rigid

	Number of charges:                               0
	Number of bonddipoles:                           0


System Properties
===========================================================================
Unit cell size: 18.578000 18.578000 18.578000
Cell angles (radians)  alpha: 1.570796 beta: 1.570796 gamma: 1.570796
Cell angles (degrees)  alpha: 90.000000 beta: 90.000000 gamma: 90.000000
Number of unitcells [a]: 2
Number of unitcells [b]: 2
Number of unitcells [c]: 2

TRICLINIC Boundary conditions: alpha!=90 or beta!=90 or gamma!=90

Cartesian axis A is collinear with crystallographic axis a
Cartesian axis B is collinear with (axb)xA
Cartesian axis C is collinear with (axb)

lengths of cell vectors:
 37.15600  37.15600  37.15600
cosines of cell angles:
  0.00000   0.00000   0.00000
perpendicular cell widths:
 37.15600  37.15600  37.15600
volume of the cell: 51296.397092415995 (A^3)

Orthogonalization matrix Box
Transforms fractional coordinates abc into orthonormal Cartesian coordinates xyz
Deorthogonalization matrix InverseBox
Transforms orthonormal Cartesian coordinates xyz into fractional coordinates xyz

Box[0]:
	   37.156000000000     0.000000000000     0.000000000000
	    0.000000000000    37.156000000000     0.000000000000
	    0.000000000000     0.000000000000    37.156000000000

Inverse box[0]:
	    0.026913553666    -0.000000000000    -0.000000000000
	    0.000000000000     0.026913553666    -0.000000000000
	    0.000000000000     0.000000000000     0.026913553666


Unitcell box[0]:
	   18.578000000000     0.000000000000     0.000000000000
	    0.000000000000    18.578000000000     0.000000000000
	    0.000000000000     0.000000000000    18.578000000000

Unitcell inverse box[0]:
	    0.053827107331    -0.000000000000    -0.000000000000
	    0.000000000000     0.053827107331    -0.000000000000
	    0.000000000000     0.000000000000     0.053827107331

lengths of cell vectors (inverse box):
  0.02691   0.02691   0.02691
cosines of cell angles (inverse box):
 -0.00000  -0.00000  -0.00000
perpendicular cell widths (inverse):
  0.02691   0.02691   0.02691
volume of the cell: 51296.397092415995 (A^3)

No replicas are used
Framework is simulated as 'rigid'
Number of framework atoms: 2304
Number of framework atoms in the unit cell: 288
Framework Mass: 46144.742400001152 [g/mol]
Framework Density:  1493.772197131594 [kg/m^3]    0.6694461189733 [cm^3/g]
Helium void fraction:    0.00000000
Available pore volume:    0.00000000 [A^3]    0.00000000 [cm^3/g]
Conversion factor from molecule/unit cell -> kmol/m^3: 0.0323714, kmol/m^3 accesible pore volume: inf

Number Of Frameworks (per system): 1
----------------------------------------------------------------------
Framework name: zeolite
Space group: 229
	Identifier: 529
	short international Hermann-Mauguin symbol: I m -3 m
	long international Hermann-Mauguin symbol: I 4/m -3 2/m
	Hall symbol: -I 4 2 3
	Number of lattice translations: 2 [ (0,0,0) (0.5,0.5,0.5) ]
	acentric/centric: acentric
	chiral: yes
	enantiomorphic: no
	number of operators: 96
		'x,y,z'
		'-x,-y,z'
		'-x,y,-z'
		'x,-y,-z'
		'z,x,y'
		'z,-x,-y'
		'-z,-x,y'
		'-z,x,-y'
		'y,z,x'
		'-y,z,-x'
		'y,-z,-x'
		'-y,-z,x'
		'y,x,-z'
		'-y,-x,-z'
		'y,-x,z'
		'-y,x,z'
		'x,z,-y'
		'-x,z,y'
		'-x,-z,-y'
		'x,-z,y'
		'z,y,-x'
		'z,-y,x'
		'-z,y,x'
		'-z,-y,-x'
		'-x,-y,-z'
		'x,y,-z'
		'x,-y,z'
		'-x,y,z'
		'-z,-x,-y'
		'-z,x,y'
		'z,x,-y'
		'z,-x,y'
		'-y,-z,-x'
		'y,-z,x'
		'-y,z,x'
		'y,z,-x'
		'-y,-x,z'
		'y,x,z'
		'-y,x,-z'
		'y,-x,-z'
		'-x,-z,y'
		'x,-z,-y'
		'x,z,y'
		'-x,z,-y'
		'-z,-y,x'
		'-z,y,-x'
		'z,-y,-x'
		'z,y,x'
		'x+1/2,y+1/2,z+1/2'
		'-x+1/2,-y+1/2,z+1/2'
		'-x+1/2,y+1/2,-z+1/2'
		'x+1/2,-y+1/2,-z+1/2'
		'z+1/2,x+1/2,y+1/2'
		'z+1/2,-x+1/2,-y+1/2'
		'-z+1/2,-x+1/2,y+1/2'
		'-z+1/2,x+1/2,-y+1/2'
		'y+1/2,z+1/2,x+1/2'
		'-y+1/2,z+1/2,-x+1/2'
		'y+1/2,-z+1/2,-x+1/2'
		'-y+1/2,-z+1/2,x+1/2'
		'y+1/2,x+1/2,-z+1/2'
		'-y+1/2,-x+1/2,-z+1/2'
		'y+1/2,-x+1/2,z+1/2'
		'-y+1/2,x+1/2,z+1/2'
		'x+1/2,z+1/2,-y+1/2'
		'-x+1/2,z+1/2,y+1/2'
		'-x+1/2,-z+1/2,-y+1/2'
		'x+1/2,-z+1/2,y+1/2'
		'z+1/2,y+1/2,-x+1/2'
		'z+1/2,-y+1/2,x+1/2'
		'-z+1/2,y+1/2,x+1/2'
		'-z+1/2,-y+1/2,-x+1/2'
		'-x+1/2,-y+1/2,-z+1/2'
		'x+1/2,y+1/2,-z+1/2'
		'x+1/2,-y+1/2,z+1/2'
		'-x+1/2,y+1/2,z+1/2'
		'-z+1/2,-x+1/2,-y+1/2'
		'-z+1/2,x+1/2,y+1/2'
		'z+1/2,x+1/2,-y+1/2'
		'z+1/2,-x+1/2,y+1/2'
		'-y+1/2,-z+1/2,-x+1/2'
		'y+1/2,-z+1/2,x+1/2'
		'-y+1/2,z+1/2,x+1/2'
		'y+1/2,z+1/2,-x+1/2'
		'-y+1/2,-x+1/2,z+1/2'
		'y+1/2,x+1/2,z+1/2'
		'-y+1/2,x+1/2,-z+1/2'
		'y+1/2,-x+1/2,-z+1/2'
		'-x+1/2,-z+1/2,y+1/2'
		'x+1/2,-z+1/2,-y+1/2'
		'x+1/2,z+1/2,y+1/2'
		'-x+1/2,z+1/2,-y+1/2'
		'-z+1/2,-y+1/2,x+1/2'
		'-z+1/2,y+1/2,-x+1/2'
		'z+1/2,-y+1/2,-x+1/2'
		'z+1/2,y+1/2,x+1/2'
Framework is simulated as 'rigid'
Shift: 0.000000 0.000000 0.000000
Number of framework atoms: 2304
Number of asymmetric atoms: 5
Number of free framework atoms: 0
Number of fixed framework atoms: 2304
Number of framework atoms in the unit cell: 288
Framework Mass: 46144.742400001152 [g/mol]
Framework Density:  1493.772197131594 [kg/m^3]
Framework has net charge: 0.000000
         largest charge : 0.000000
         smallest charge: 0.000000

Using FULL Host-guest interaction calculation (for testing purposes)

Current Atom Status
===========================================================================
Number of framework atoms        : 2304
Number of cations molecules      : 0
Number of adsorbate molecules    : 0
Component    0 :    0 molecules
Pseudo Atoms    0 [    UNIT]:    0 atoms
Pseudo Atoms    1 [   DUMMY]:    0 atoms
Pseudo Atoms    2 [      He]:    0 atoms
Pseudo Atoms    3 [      Ar]:    0 atoms
Pseudo Atoms    4 [       T]:  768 atoms
Pseudo Atoms    5 [      Al]:    0 atoms
Pseudo Atoms    6 [       O]: 1536 atoms


Current (initial full energy) Energy Status
===========================================================================

Internal energy:
Host stretch energy:                                            0.00000000
Host UreyBradley energy:                                        0.00000000
Host bend energy:                                               0.00000000
Host inversion-bend energy:                                     0.00000000
Host torsion energy:                                            0.00000000
Host improper torsion energy:                                   0.00000000
Host out-of-plane energy:                                       0.00000000
Host stretch/stretch energy:                                    0.00000000
Host bend/bend energy:                                          0.00000000
Host stretch/bend energy:                                       0.00000000
Host stretch/torsion energy:                                    0.00000000
Host bend/torsion energy:                                       0.00000000

Adsorbate stretch energy:                                       0.00000000
Adsorbate UreyBradley energy:                                   0.00000000
Adsorbate bend energy:                                          0.00000000
Adsorbate inversion-bend energy:                                0.00000000
Adsorbate torsion energy:                                       0.00000000
Adsorbate improper torsion energy:                              0.00000000
Adsorbate out-of-plane energy:                                  0.00000000
Adsorbate stretch/stretch energy:                               0.00000000
Adsorbate bend/bend energy:                                     0.00000000
Adsorbate stretch/bend energy:                                  0.00000000
Adsorbate stretch/torsion energy:                               0.00000000
Adsorbate bend/torsion energy:                                  0.00000000
Adsorbate intra VDW energy:                                     0.00000000
Adsorbate intra charge-charge Coulomb energy:                   0.00000000
Adsorbate intra charge-bonddipole Coulomb energy:               0.00000000
Adsorbate intra bonddipole-bonddipole Coulomb energy:           0.00000000

Cation stretch energy:                                          0.00000000
Cation UreyBradley energy:                                      0.00000000
Cation bend energy:                                             0.00000000
Cation inversion-bend energy:                                   0.00000000
Cation torsion energy:                                          0.00000000
Cation improper torsion energy:                                 0.00000000
Cation out-of-plane energy:                                     0.00000000
Cation stretch/stretch energy:                                  0.00000000
Cation bend/bend energy:                                        0.00000000
Cation stretch/bend energy:                                     0.00000000
Cation stretch/torsion energy:                                  0.00000000
Cation bend/torsion energy:                                     0.00000000
Cation intra VDW energy:                                        0.00000000
Cation intra charge-charge Coulomb energy:                      0.00000000
Cation intra charge-bonddipole Coulomb energy:                  0.00000000
Cation intra bonddipole-bonddipole Coulomb energy:              0.00000000

Host/Host energy:                                             0.00000000
	Host/Host VDW energy:                                         0.00000000
	Host/Host Coulomb energy:                                     0.00000000
	Host/Host charge-charge Real energy:                          0.00000000
	Host/Host charge-charge Fourier energy:                       0.00000000
	Host/Host charge-bonddipole Real energy:                      0.00000000
	Host/Host charge-bonddipole Fourier energy:                   0.00000000
	Host/Host bondipole-bonddipole Real energy:                   0.00000000
	Host/Host bondipole-bonddipole Fourier energy:                0.00000000

Host/Adsorbate energy:                                        0.00000000
	Host/Adsorbate VDW energy:                                    0.00000000
	Host/Adsorbate Coulomb energy:                                0.00000000
	Host/Adsorbate charge-charge Real energy:                     0.00000000
	Host/Adsorbate charge-charge Fourier energy:                  0.00000000
	Host/Adsorbate charge-bonddipole Real energy:                 0.00000000
	Host/Adsorbate charge-bonddipole Fourier energy:              0.00000000
	Host/Adsorbate bondipole-bonddipole Real energy:              0.00000000
	Host/Adsorbate bondipole-bonddipole Fourier energy:           0.00000000

Host/Cation energy:                                           0.00000000
	Host/Cation VDW energy:                                       0.00000000
	Host/Cation Coulomb energy:                                   0.00000000
	Host/Cation charge-charge Real energy:                        0.00000000
	Host/Cation charge-charge Fourier energy:                     0.00000000
	Host/Cation charge-bonddipole Real energy:                    0.00000000
	Host/Cation charge-bonddipole Fourier energy:                 0.00000000
	Host/Cation bondipole-bonddipole Real energy:                 0.00000000
	Host/Cation bondipole-bonddipole Fourier energy:              0.00000000

Adsorbate/Adsorbate energy:                                        0.00000000
	Adsorbate/Adsorbate VDW energy:                                    0.00000000
	Adsorbate/Adsorbate Coulomb energy:                                0.00000000
	Adsorbate/Adsorbate charge-charge Real energy:                     0.00000000
	Adsorbate/Adsorbate charge-charge Fourier energy:                  0.00000000
	Adsorbate/Adsorbate charge-bonddipole Real energy:                 0.00000000
	Adsorbate/Adsorbate charge-bonddipole Fourier energy:              0.00000000
	Adsorbate/Adsorbate bondipole-bonddipole Real energy:              0.00000000
	Adsorbate/Adsorbate bondipole-bonddipole Fourier energy:           0.00000000

Adsorbate/Cation energy:                                           0.00000000
	Adsorbate/Cation VDW energy:                                       0.00000000
	Adsorbate/Cation Coulomb energy:                                   0.00000000
	Adsorbate/Cation charge-charge Real energy:                        0.00000000
	Adsorbate/Cation charge-charge Fourier energy:                     0.00000000
	Adsorbate/Cation charge-bonddipole Real energy:                    0.00000000
	Adsorbate/Cation charge-bonddipole Fourier energy:                 0.00000000
	Adsorbate/Cation bondipole-bonddipole Real energy:                 0.00000000
	Adsorbate/Cation bondipole-bonddipole Fourier energy:              0.00000000

Cation/Cation energy:                                           0.00000000
	Cation/Cation VDW energy:                                       0.00000000
	Cation/Cation Coulomb energy:                                   0.00000000
	Cation/Cation charge-charge Real energy:                        0.00000000
	Cation/Cation charge-charge Fourier energy:                     0.00000000
	Cation/Cation charge-bonddipole Real energy:                    0.00000000
	Cation/Cation charge-bonddipole Fourier energy:                 0.00000000
	Cation/Cation bondipole-bonddipole Real energy:                 0.00000000
	Cation/Cation bondipole-bonddipole Fourier energy:              0.00000000

Polarization energy:
	Host polarization energy:                                     0.00000000
	Adsorbate polarization energy:                                0.00000000
	Cation polarization energy:                                   0.00000000
	Host back-polarization energy:                                     0.00000000
	Adsorbate back-polarization energy:                                0.00000000
	Cation back-polarization energy:                                   0.00000000

Tail-correction energy:                                       0.00000000

Distance constraints energy:                                  0.00000000
Angle constraints energy:                                     0.00000000
Dihedral constraints energy:                                  0.00000000
Inversion-bend constraints energy:                            0.00000000
Out-of-plane distance constraints energy:                     0.00000000
Exclusion constraints energy:                                 0.00000000

===================================================================
Total energy:     0.000000000000
	Total Van der Waals: 0.000000
	Total Coulomb: 0.000000

	Total Polarization: 0.000000







+++++++++++++++++++++++++++++++++++++++++++++++++++++++++++++++++++++++++
Starting simulation
+++++++++++++++++++++++++++++++++++++++++++++++++++++++++++++++++++++++++

[Init] Current cycle: 0 out of 100000
========================================================================================================

Net charge: 0 (F: 0, A: 0, C: 0)
Current Box:  37.15600   0.00000   0.00000 [A]
               0.00000  37.15600   0.00000 [A]
               0.00000   0.00000  37.15600 [A]
Box-lengths:  37.15600  37.15600  37.15600 Box-angles:   90.00000  90.00000  90.00000 [degrees]
Volume: 51296.39709 [A^3]

Loadings per component:
----------------------------------------------------------------------------------------------------------------------------------------------------
Component 0 (argon), current number of integer/fractional/reaction molecules: 0/0/0, density:   0.00000 [kg/m^3]
	absolute adsorption:   0.00000 [mol/uc],         0.0000 [mol/kg],              0.0000 [mg/g]
	                                                 0.0000 [cm^3 STP/g],          0.0000 [cm^3 STP/cm^3]
	excess adsorption:     0.00000 [mol/uc],         0.0000 [mol/kg],              0.0000 [mg/g]
	                                                 0.0000 [cm^3 STP/g],          0.0000 [cm^3 STP/cm^3]
----------------------------------------------------------------------------------------------------------------------------------------------------
Degrees of freedom: 0 0 0 0
Number of Framework-atoms:   2304
Number of Adsorbates:           0 (0 integer, 0 fractional, 0 reaction)
Number of Cations:              0 (0 integer, 0 fractional, 0 reaction

Current total potential energy:                 0.0000000000 [K]
	Current Host-Host energy:                     0.0000000000 [K]
	Current Host-Adsorbate energy:                0.0000000000 [K]
	Current Host-Cation energy:                   0.0000000000 [K]
	Current Adsorbate-Adsorbate energy:           0.0000000000 [K]
	Current Cation-Cation energy:                 0.0000000000 [K]
	Current Adsorbate-Cation energy:              0.0000000000 [K]



[Init] Current cycle: 1000 out of 100000
========================================================================================================

Net charge: 0 (F: 0, A: 0, C: 0)
Current Box:  37.15600   0.00000   0.00000 [A]
               0.00000  37.15600   0.00000 [A]
               0.00000   0.00000  37.15600 [A]
Box-lengths:  37.15600  37.15600  37.15600 Box-angles:   90.00000  90.00000  90.00000 [degrees]
Volume: 51296.39709 [A^3]

Loadings per component:
----------------------------------------------------------------------------------------------------------------------------------------------------
Component 0 (argon), current number of integer/fractional/reaction molecules: 507/0/0, density: 655.64014 [kg/m^3]
	absolute adsorption:  63.37500 [mol/uc],        10.9872 [mol/kg],            438.9154 [mg/g]
	                                               246.2661 [cm^3 STP/g],        367.8655 [cm^3 STP/cm^3]
	excess adsorption:    63.37500 [mol/uc],        10.9872 [mol/kg],            438.9154 [mg/g]
	                                               246.2661 [cm^3 STP/g],        367.8655 [cm^3 STP/cm^3]
----------------------------------------------------------------------------------------------------------------------------------------------------
Degrees of freedom: 1521 0 1521 0
Number of Framework-atoms:   2304
Number of Adsorbates:         507 (507 integer, 0 fractional, 0 reaction)
Number of Cations:              0 (0 integer, 0 fractional, 0 reaction

Current total potential energy:          -1295323.0301479362 [K]
	Current Host-Host energy:                     0.0000000000 [K]
	Current Host-Adsorbate energy:         -1135443.8161766923 [K]
	Current Host-Cation energy:                   0.0000000000 [K]
	Current Adsorbate-Adsorbate energy:     -159879.2139712454 [K]
	Current Cation-Cation energy:                 0.0000000000 [K]
	Current Adsorbate-Cation energy:              0.0000000000 [K]



[Init] Current cycle: 2000 out of 100000
========================================================================================================

Net charge: 0 (F: 0, A: 0, C: 0)
Current Box:  37.15600   0.00000   0.00000 [A]
               0.00000  37.15600   0.00000 [A]
               0.00000   0.00000  37.15600 [A]
Box-lengths:  37.15600  37.15600  37.15600 Box-angles:   90.00000  90.00000  90.00000 [degrees]
Volume: 51296.39709 [A^3]

Loadings per component:
----------------------------------------------------------------------------------------------------------------------------------------------------
Component 0 (argon), current number of integer/fractional/reaction molecules: 522/0/0, density: 675.03777 [kg/m^3]
	absolute adsorption:  65.25000 [mol/uc],        11.3122 [mol/kg],            451.9010 [mg/g]
	                                               253.5521 [cm^3 STP/g],        378.7490 [cm^3 STP/cm^3]
	excess adsorption:    65.25000 [mol/uc],        11.3122 [mol/kg],            451.9010 [mg/g]
	                                               253.5521 [cm^3 STP/g],        378.7490 [cm^3 STP/cm^3]
----------------------------------------------------------------------------------------------------------------------------------------------------
Degrees of freedom: 1566 0 1566 0
Number of Framework-atoms:   2304
Number of Adsorbates:         522 (522 integer, 0 fractional, 0 reaction)
Number of Cations:              0 (0 integer, 0 fractional, 0 reaction

Current total potential energy:          -1337705.6612712606 [K]
	Current Host-Host energy:                     0.0000000000 [K]
	Current Host-Adsorbate energy:         -1168141.2732823777 [K]
	Current Host-Cation energy:                   0.0000000000 [K]
	Current Adsorbate-Adsorbate energy:     -169564.3879888854 [K]
	Current Cation-Cation energy:                 0.0000000000 [K]
	Current Adsorbate-Cation energy:              0.0000000000 [K]



[Init] Current cycle: 3000 out of 100000
========================================================================================================

Net charge: 0 (F: 0, A: 0, C: 0)
Current Box:  37.15600   0.00000   0.00000 [A]
               0.00000  37.15600   0.00000 [A]
               0.00000   0.00000  37.15600 [A]
Box-lengths:  37.15600  37.15600  37.15600 Box-angles:   90.00000  90.00000  90.00000 [degrees]
Volume: 51296.39709 [A^3]

Loadings per component:
----------------------------------------------------------------------------------------------------------------------------------------------------
Component 0 (argon), current number of integer/fractional/reaction molecules: 536/0/0, density: 693.14223 [kg/m^3]
	absolute adsorption:  67.00000 [mol/uc],        11.6156 [mol/kg],            464.0210 [mg/g]
	                                               260.3523 [cm^3 STP/g],        388.9071 [cm^3 STP/cm^3]
	excess adsorption:    67.00000 [mol/uc],        11.6156 [mol/kg],            464.0210 [mg/g]
	                                               260.3523 [cm^3 STP/g],        388.9071 [cm^3 STP/cm^3]
----------------------------------------------------------------------------------------------------------------------------------------------------
Degrees of freedom: 1608 0 1608 0
Number of Framework-atoms:   2304
Number of Adsorbates:         536 (536 integer, 0 fractional, 0 reaction)
Number of Cations:              0 (0 integer, 0 fractional, 0 reaction

Current total potential energy:          -1359969.9400478418 [K]
	Current Host-Host energy:                     0.0000000000 [K]
	Current Host-Adsorbate energy:         -1186947.3682997862 [K]
	Current Host-Cation energy:                   0.0000000000 [K]
	Current Adsorbate-Adsorbate energy:     -173022.5717480492 [K]
	Current Cation-Cation energy:                 0.0000000000 [K]
	Current Adsorbate-Cation energy:              0.0000000000 [K]



[Init] Current cycle: 4000 out of 100000
========================================================================================================

Net charge: 0 (F: 0, A: 0, C: 0)
Current Box:  37.15600   0.00000   0.00000 [A]
               0.00000  37.15600   0.00000 [A]
               0.00000   0.00000  37.15600 [A]
Box-lengths:  37.15600  37.15600  37.15600 Box-angles:   90.00000  90.00000  90.00000 [degrees]
Volume: 51296.39709 [A^3]

Loadings per component:
----------------------------------------------------------------------------------------------------------------------------------------------------
Component 0 (argon), current number of integer/fractional/reaction molecules: 538/0/0, density: 695.72859 [kg/m^3]
	absolute adsorption:  67.25000 [mol/uc],        11.6590 [mol/kg],            465.7524 [mg/g]
	                                               261.3238 [cm^3 STP/g],        390.3582 [cm^3 STP/cm^3]
	excess adsorption:    67.25000 [mol/uc],        11.6590 [mol/kg],            465.7524 [mg/g]
	                                               261.3238 [cm^3 STP/g],        390.3582 [cm^3 STP/cm^3]
----------------------------------------------------------------------------------------------------------------------------------------------------
Degrees of freedom: 1614 0 1614 0
Number of Framework-atoms:   2304
Number of Adsorbates:         538 (538 integer, 0 fractional, 0 reaction)
Number of Cations:              0 (0 integer, 0 fractional, 0 reaction

Current total potential energy:          -1375181.4558474559 [K]
	Current Host-Host energy:                     0.0000000000 [K]
	Current Host-Adsorbate energy:         -1199772.4760492586 [K]
	Current Host-Cation energy:                   0.0000000000 [K]
	Current Adsorbate-Adsorbate energy:     -175408.9797982144 [K]
	Current Cation-Cation energy:                 0.0000000000 [K]
	Current Adsorbate-Cation energy:              0.0000000000 [K]



[Init] Current cycle: 5000 out of 100000
========================================================================================================

Net charge: 0 (F: 0, A: 0, C: 0)
Current Box:  37.15600   0.00000   0.00000 [A]
               0.00000  37.15600   0.00000 [A]
               0.00000   0.00000  37.15600 [A]
Box-lengths:  37.15600  37.15600  37.15600 Box-angles:   90.00000  90.00000  90.00000 [degrees]
Volume: 51296.39709 [A^3]

Loadings per component:
----------------------------------------------------------------------------------------------------------------------------------------------------
Component 0 (argon), current number of integer/fractional/reaction molecules: 539/0/0, density: 697.02176 [kg/m^3]
	absolute adsorption:  67.37500 [mol/uc],        11.6806 [mol/kg],            466.6181 [mg/g]
	                                               261.8095 [cm^3 STP/g],        391.0838 [cm^3 STP/cm^3]
	excess adsorption:    67.37500 [mol/uc],        11.6806 [mol/kg],            466.6181 [mg/g]
	                                               261.8095 [cm^3 STP/g],        391.0838 [cm^3 STP/cm^3]
----------------------------------------------------------------------------------------------------------------------------------------------------
Degrees of freedom: 1617 0 1617 0
Number of Framework-atoms:   2304
Number of Adsorbates:         539 (539 integer, 0 fractional, 0 reaction)
Number of Cations:              0 (0 integer, 0 fractional, 0 reaction

Current total potential energy:          -1374660.5390161658 [K]
	Current Host-Host energy:                     0.0000000000 [K]
	Current Host-Adsorbate energy:         -1200237.4423410757 [K]
	Current Host-Cation energy:                   0.0000000000 [K]
	Current Adsorbate-Adsorbate energy:     -174423.0966750807 [K]
	Current Cation-Cation energy:                 0.0000000000 [K]
	Current Adsorbate-Cation energy:              0.0000000000 [K]



[Init] Current cycle: 6000 out of 100000
========================================================================================================

Net charge: 0 (F: 0, A: 0, C: 0)
Current Box:  37.15600   0.00000   0.00000 [A]
               0.00000  37.15600   0.00000 [A]
               0.00000   0.00000  37.15600 [A]
Box-lengths:  37.15600  37.15600  37.15600 Box-angles:   90.00000  90.00000  90.00000 [degrees]
Volume: 51296.39709 [A^3]

Loadings per component:
----------------------------------------------------------------------------------------------------------------------------------------------------
Component 0 (argon), current number of integer/fractional/reaction molecules: 546/0/0, density: 706.07399 [kg/m^3]
	absolute adsorption:  68.25000 [mol/uc],        11.8323 [mol/kg],            472.6781 [mg/g]
	                                               265.2096 [cm^3 STP/g],        396.1628 [cm^3 STP/cm^3]
	excess adsorption:    68.25000 [mol/uc],        11.8323 [mol/kg],            472.6781 [mg/g]
	                                               265.2096 [cm^3 STP/g],        396.1628 [cm^3 STP/cm^3]
----------------------------------------------------------------------------------------------------------------------------------------------------
Degrees of freedom: 1638 0 1638 0
Number of Framework-atoms:   2304
Number of Adsorbates:         546 (546 integer, 0 fractional, 0 reaction)
Number of Cations:              0 (0 integer, 0 fractional, 0 reaction

Current total potential energy:          -1386680.0894793787 [K]
	Current Host-Host energy:                     0.0000000000 [K]
	Current Host-Adsorbate energy:         -1210498.8117628798 [K]
	Current Host-Cation energy:                   0.0000000000 [K]
	Current Adsorbate-Adsorbate energy:     -176181.2777165347 [K]
	Current Cation-Cation energy:                 0.0000000000 [K]
	Current Adsorbate-Cation energy:              0.0000000000 [K]



[Init] Current cycle: 7000 out of 100000
========================================================================================================

Net charge: 0 (F: 0, A: 0, C: 0)
Current Box:  37.15600   0.00000   0.00000 [A]
               0.00000  37.15600   0.00000 [A]
               0.00000   0.00000  37.15600 [A]
Box-lengths:  37.15600  37.15600  37.15600 Box-angles:   90.00000  90.00000  90.00000 [degrees]
Volume: 51296.39709 [A^3]

Loadings per component:
----------------------------------------------------------------------------------------------------------------------------------------------------
Component 0 (argon), current number of integer/fractional/reaction molecules: 546/0/0, density: 706.07399 [kg/m^3]
	absolute adsorption:  68.25000 [mol/uc],        11.8323 [mol/kg],            472.6781 [mg/g]
	                                               265.2096 [cm^3 STP/g],        396.1628 [cm^3 STP/cm^3]
	excess adsorption:    68.25000 [mol/uc],        11.8323 [mol/kg],            472.6781 [mg/g]
	                                               265.2096 [cm^3 STP/g],        396.1628 [cm^3 STP/cm^3]
----------------------------------------------------------------------------------------------------------------------------------------------------
Degrees of freedom: 1638 0 1638 0
Number of Framework-atoms:   2304
Number of Adsorbates:         546 (546 integer, 0 fractional, 0 reaction)
Number of Cations:              0 (0 integer, 0 fractional, 0 reaction

Current total potential energy:          -1383903.7864071506 [K]
	Current Host-Host energy:                     0.0000000000 [K]
	Current Host-Adsorbate energy:         -1205266.9154225052 [K]
	Current Host-Cation energy:                   0.0000000000 [K]
	Current Adsorbate-Adsorbate energy:     -178636.8709846838 [K]
	Current Cation-Cation energy:                 0.0000000000 [K]
	Current Adsorbate-Cation energy:              0.0000000000 [K]



[Init] Current cycle: 8000 out of 100000
========================================================================================================

Net charge: 0 (F: 0, A: 0, C: 0)
Current Box:  37.15600   0.00000   0.00000 [A]
               0.00000  37.15600   0.00000 [A]
               0.00000   0.00000  37.15600 [A]
Box-lengths:  37.15600  37.15600  37.15600 Box-angles:   90.00000  90.00000  90.00000 [degrees]
Volume: 51296.39709 [A^3]

Loadings per component:
----------------------------------------------------------------------------------------------------------------------------------------------------
Component 0 (argon), current number of integer/fractional/reaction molecules: 550/0/0, density: 711.24670 [kg/m^3]
	absolute adsorption:  68.75000 [mol/uc],        11.9190 [mol/kg],            476.1409 [mg/g]
	                                               267.1526 [cm^3 STP/g],        399.0651 [cm^3 STP/cm^3]
	excess adsorption:    68.75000 [mol/uc],        11.9190 [mol/kg],            476.1409 [mg/g]
	                                               267.1526 [cm^3 STP/g],        399.0651 [cm^3 STP/cm^3]
----------------------------------------------------------------------------------------------------------------------------------------------------
Degrees of freedom: 1650 0 1650 0
Number of Framework-atoms:   2304
Number of Adsorbates:         550 (550 integer, 0 fractional, 0 reaction)
Number of Cations:              0 (0 integer, 0 fractional, 0 reaction

Current total potential energy:          -1391941.6144643722 [K]
	Current Host-Host energy:                     0.0000000000 [K]
	Current Host-Adsorbate energy:         -1216349.7712143937 [K]
	Current Host-Cation energy:                   0.0000000000 [K]
	Current Adsorbate-Adsorbate energy:     -175591.8432500287 [K]
	Current Cation-Cation energy:                 0.0000000000 [K]
	Current Adsorbate-Cation energy:              0.0000000000 [K]



[Init] Current cycle: 9000 out of 100000
========================================================================================================

Net charge: 0 (F: 0, A: 0, C: 0)
Current Box:  37.15600   0.00000   0.00000 [A]
               0.00000  37.15600   0.00000 [A]
               0.00000   0.00000  37.15600 [A]
Box-lengths:  37.15600  37.15600  37.15600 Box-angles:   90.00000  90.00000  90.00000 [degrees]
Volume: 51296.39709 [A^3]

Loadings per component:
----------------------------------------------------------------------------------------------------------------------------------------------------
Component 0 (argon), current number of integer/fractional/reaction molecules: 552/0/0, density: 713.83305 [kg/m^3]
	absolute adsorption:  69.00000 [mol/uc],        11.9624 [mol/kg],            477.8723 [mg/g]
	                                               268.1240 [cm^3 STP/g],        400.5162 [cm^3 STP/cm^3]
	excess adsorption:    69.00000 [mol/uc],        11.9624 [mol/kg],            477.8723 [mg/g]
	                                               268.1240 [cm^3 STP/g],        400.5162 [cm^3 STP/cm^3]
----------------------------------------------------------------------------------------------------------------------------------------------------
Degrees of freedom: 1656 0 1656 0
Number of Framework-atoms:   2304
Number of Adsorbates:         552 (552 integer, 0 fractional, 0 reaction)
Number of Cations:              0 (0 integer, 0 fractional, 0 reaction

Current total potential energy:          -1396150.8773812396 [K]
	Current Host-Host energy:                     0.0000000000 [K]
	Current Host-Adsorbate energy:         -1220201.3419986481 [K]
	Current Host-Cation energy:                   0.0000000000 [K]
	Current Adsorbate-Adsorbate energy:     -175949.5353826457 [K]
	Current Cation-Cation energy:                 0.0000000000 [K]
	Current Adsorbate-Cation energy:              0.0000000000 [K]



[Init] Current cycle: 10000 out of 100000
========================================================================================================

Net charge: 0 (F: 0, A: 0, C: 0)
Current Box:  37.15600   0.00000   0.00000 [A]
               0.00000  37.15600   0.00000 [A]
               0.00000   0.00000  37.15600 [A]
Box-lengths:  37.15600  37.15600  37.15600 Box-angles:   90.00000  90.00000  90.00000 [degrees]
Volume: 51296.39709 [A^3]

Loadings per component:
----------------------------------------------------------------------------------------------------------------------------------------------------
Component 0 (argon), current number of integer/fractional/reaction molecules: 552/0/0, density: 713.83305 [kg/m^3]
	absolute adsorption:  69.00000 [mol/uc],        11.9624 [mol/kg],            477.8723 [mg/g]
	                                               268.1240 [cm^3 STP/g],        400.5162 [cm^3 STP/cm^3]
	excess adsorption:    69.00000 [mol/uc],        11.9624 [mol/kg],            477.8723 [mg/g]
	                                               268.1240 [cm^3 STP/g],        400.5162 [cm^3 STP/cm^3]
----------------------------------------------------------------------------------------------------------------------------------------------------
Degrees of freedom: 1656 0 1656 0
Number of Framework-atoms:   2304
Number of Adsorbates:         552 (552 integer, 0 fractional, 0 reaction)
Number of Cations:              0 (0 integer, 0 fractional, 0 reaction

Current total potential energy:          -1397665.0956757346 [K]
	Current Host-Host energy:                     0.0000000000 [K]
	Current Host-Adsorbate energy:         -1218688.1802976856 [K]
	Current Host-Cation energy:                   0.0000000000 [K]
	Current Adsorbate-Adsorbate energy:     -178976.9153781041 [K]
	Current Cation-Cation energy:                 0.0000000000 [K]
	Current Adsorbate-Cation energy:              0.0000000000 [K]



[Init] Current cycle: 11000 out of 100000
========================================================================================================

Net charge: 0 (F: 0, A: 0, C: 0)
Current Box:  37.15600   0.00000   0.00000 [A]
               0.00000  37.15600   0.00000 [A]
               0.00000   0.00000  37.15600 [A]
Box-lengths:  37.15600  37.15600  37.15600 Box-angles:   90.00000  90.00000  90.00000 [degrees]
Volume: 51296.39709 [A^3]

Loadings per component:
----------------------------------------------------------------------------------------------------------------------------------------------------
Component 0 (argon), current number of integer/fractional/reaction molecules: 553/0/0, density: 715.12622 [kg/m^3]
	absolute adsorption:  69.12500 [mol/uc],        11.9840 [mol/kg],            478.7381 [mg/g]
	                                               268.6098 [cm^3 STP/g],        401.2418 [cm^3 STP/cm^3]
	excess adsorption:    69.12500 [mol/uc],        11.9840 [mol/kg],            478.7381 [mg/g]
	                                               268.6098 [cm^3 STP/g],        401.2418 [cm^3 STP/cm^3]
----------------------------------------------------------------------------------------------------------------------------------------------------
Degrees of freedom: 1659 0 1659 0
Number of Framework-atoms:   2304
Number of Adsorbates:         553 (553 integer, 0 fractional, 0 reaction)
Number of Cations:              0 (0 integer, 0 fractional, 0 reaction

Current total potential energy:          -1398649.2849018348 [K]
	Current Host-Host energy:                     0.0000000000 [K]
	Current Host-Adsorbate energy:         -1218523.4580242839 [K]
	Current Host-Cation energy:                   0.0000000000 [K]
	Current Adsorbate-Adsorbate energy:     -180125.8268775882 [K]
	Current Cation-Cation energy:                 0.0000000000 [K]
	Current Adsorbate-Cation energy:              0.0000000000 [K]



[Init] Current cycle: 12000 out of 100000
========================================================================================================

Net charge: 0 (F: 0, A: 0, C: 0)
Current Box:  37.15600   0.00000   0.00000 [A]
               0.00000  37.15600   0.00000 [A]
               0.00000   0.00000  37.15600 [A]
Box-lengths:  37.15600  37.15600  37.15600 Box-angles:   90.00000  90.00000  90.00000 [degrees]
Volume: 51296.39709 [A^3]

Loadings per component:
----------------------------------------------------------------------------------------------------------------------------------------------------
Component 0 (argon), current number of integer/fractional/reaction molecules: 550/0/0, density: 711.24670 [kg/m^3]
	absolute adsorption:  68.75000 [mol/uc],        11.9190 [mol/kg],            476.1409 [mg/g]
	                                               267.1526 [cm^3 STP/g],        399.0651 [cm^3 STP/cm^3]
	excess adsorption:    68.75000 [mol/uc],        11.9190 [mol/kg],            476.1409 [mg/g]
	                                               267.1526 [cm^3 STP/g],        399.0651 [cm^3 STP/cm^3]
----------------------------------------------------------------------------------------------------------------------------------------------------
Degrees of freedom: 1650 0 1650 0
Number of Framework-atoms:   2304
Number of Adsorbates:         550 (550 integer, 0 fractional, 0 reaction)
Number of Cations:              0 (0 integer, 0 fractional, 0 reaction

Current total potential energy:          -1394986.3098931743 [K]
	Current Host-Host energy:                     0.0000000000 [K]
	Current Host-Adsorbate energy:         -1216065.6398394362 [K]
	Current Host-Cation energy:                   0.0000000000 [K]
	Current Adsorbate-Adsorbate energy:     -178920.6700537705 [K]
	Current Cation-Cation energy:                 0.0000000000 [K]
	Current Adsorbate-Cation energy:              0.0000000000 [K]



[Init] Current cycle: 13000 out of 100000
========================================================================================================

Net charge: 0 (F: 0, A: 0, C: 0)
Current Box:  37.15600   0.00000   0.00000 [A]
               0.00000  37.15600   0.00000 [A]
               0.00000   0.00000  37.15600 [A]
Box-lengths:  37.15600  37.15600  37.15600 Box-angles:   90.00000  90.00000  90.00000 [degrees]
Volume: 51296.39709 [A^3]

Loadings per component:
----------------------------------------------------------------------------------------------------------------------------------------------------
Component 0 (argon), current number of integer/fractional/reaction molecules: 551/0/0, density: 712.53987 [kg/m^3]
	absolute adsorption:  68.87500 [mol/uc],        11.9407 [mol/kg],            477.0066 [mg/g]
	                                               267.6383 [cm^3 STP/g],        399.7907 [cm^3 STP/cm^3]
	excess adsorption:    68.87500 [mol/uc],        11.9407 [mol/kg],            477.0066 [mg/g]
	                                               267.6383 [cm^3 STP/g],        399.7907 [cm^3 STP/cm^3]
----------------------------------------------------------------------------------------------------------------------------------------------------
Degrees of freedom: 1653 0 1653 0
Number of Framework-atoms:   2304
Number of Adsorbates:         551 (551 integer, 0 fractional, 0 reaction)
Number of Cations:              0 (0 integer, 0 fractional, 0 reaction

Current total potential energy:          -1399603.5811703876 [K]
	Current Host-Host energy:                     0.0000000000 [K]
	Current Host-Adsorbate energy:         -1219081.4600026149 [K]
	Current Host-Cation energy:                   0.0000000000 [K]
	Current Adsorbate-Adsorbate energy:     -180522.1211678344 [K]
	Current Cation-Cation energy:                 0.0000000000 [K]
	Current Adsorbate-Cation energy:              0.0000000000 [K]



[Init] Current cycle: 14000 out of 100000
========================================================================================================

Net charge: 0 (F: 0, A: 0, C: 0)
Current Box:  37.15600   0.00000   0.00000 [A]
               0.00000  37.15600   0.00000 [A]
               0.00000   0.00000  37.15600 [A]
Box-lengths:  37.15600  37.15600  37.15600 Box-angles:   90.00000  90.00000  90.00000 [degrees]
Volume: 51296.39709 [A^3]

Loadings per component:
----------------------------------------------------------------------------------------------------------------------------------------------------
Component 0 (argon), current number of integer/fractional/reaction molecules: 553/0/0, density: 715.12622 [kg/m^3]
	absolute adsorption:  69.12500 [mol/uc],        11.9840 [mol/kg],            478.7381 [mg/g]
	                                               268.6098 [cm^3 STP/g],        401.2418 [cm^3 STP/cm^3]
	excess adsorption:    69.12500 [mol/uc],        11.9840 [mol/kg],            478.7381 [mg/g]
	                                               268.6098 [cm^3 STP/g],        401.2418 [cm^3 STP/cm^3]
----------------------------------------------------------------------------------------------------------------------------------------------------
Degrees of freedom: 1659 0 1659 0
Number of Framework-atoms:   2304
Number of Adsorbates:         553 (553 integer, 0 fractional, 0 reaction)
Number of Cations:              0 (0 integer, 0 fractional, 0 reaction

Current total potential energy:          -1399870.3695967975 [K]
	Current Host-Host energy:                     0.0000000000 [K]
	Current Host-Adsorbate energy:         -1223664.4365386581 [K]
	Current Host-Cation energy:                   0.0000000000 [K]
	Current Adsorbate-Adsorbate energy:     -176205.9330581732 [K]
	Current Cation-Cation energy:                 0.0000000000 [K]
	Current Adsorbate-Cation energy:              0.0000000000 [K]



[Init] Current cycle: 15000 out of 100000
========================================================================================================

Net charge: 0 (F: 0, A: 0, C: 0)
Current Box:  37.15600   0.00000   0.00000 [A]
               0.00000  37.15600   0.00000 [A]
               0.00000   0.00000  37.15600 [A]
Box-lengths:  37.15600  37.15600  37.15600 Box-angles:   90.00000  90.00000  90.00000 [degrees]
Volume: 51296.39709 [A^3]

Loadings per component:
----------------------------------------------------------------------------------------------------------------------------------------------------
Component 0 (argon), current number of integer/fractional/reaction molecules: 554/0/0, density: 716.41940 [kg/m^3]
	absolute adsorption:  69.25000 [mol/uc],        12.0057 [mol/kg],            479.6038 [mg/g]
	                                               269.0955 [cm^3 STP/g],        401.9674 [cm^3 STP/cm^3]
	excess adsorption:    69.25000 [mol/uc],        12.0057 [mol/kg],            479.6038 [mg/g]
	                                               269.0955 [cm^3 STP/g],        401.9674 [cm^3 STP/cm^3]
----------------------------------------------------------------------------------------------------------------------------------------------------
Degrees of freedom: 1662 0 1662 0
Number of Framework-atoms:   2304
Number of Adsorbates:         554 (554 integer, 0 fractional, 0 reaction)
Number of Cations:              0 (0 integer, 0 fractional, 0 reaction

Current total potential energy:          -1396558.5638966842 [K]
	Current Host-Host energy:                     0.0000000000 [K]
	Current Host-Adsorbate energy:         -1221429.5720580090 [K]
	Current Host-Cation energy:                   0.0000000000 [K]
	Current Adsorbate-Adsorbate energy:     -175128.9918387044 [K]
	Current Cation-Cation energy:                 0.0000000000 [K]
	Current Adsorbate-Cation energy:              0.0000000000 [K]



[Init] Current cycle: 16000 out of 100000
========================================================================================================

Net charge: 0 (F: 0, A: 0, C: 0)
Current Box:  37.15600   0.00000   0.00000 [A]
               0.00000  37.15600   0.00000 [A]
               0.00000   0.00000  37.15600 [A]
Box-lengths:  37.15600  37.15600  37.15600 Box-angles:   90.00000  90.00000  90.00000 [degrees]
Volume: 51296.39709 [A^3]

Loadings per component:
----------------------------------------------------------------------------------------------------------------------------------------------------
Component 0 (argon), current number of integer/fractional/reaction molecules: 554/0/0, density: 716.41940 [kg/m^3]
	absolute adsorption:  69.25000 [mol/uc],        12.0057 [mol/kg],            479.6038 [mg/g]
	                                               269.0955 [cm^3 STP/g],        401.9674 [cm^3 STP/cm^3]
	excess adsorption:    69.25000 [mol/uc],        12.0057 [mol/kg],            479.6038 [mg/g]
	                                               269.0955 [cm^3 STP/g],        401.9674 [cm^3 STP/cm^3]
----------------------------------------------------------------------------------------------------------------------------------------------------
Degrees of freedom: 1662 0 1662 0
Number of Framework-atoms:   2304
Number of Adsorbates:         554 (554 integer, 0 fractional, 0 reaction)
Number of Cations:              0 (0 integer, 0 fractional, 0 reaction

Current total potential energy:          -1400520.1459355350 [K]
	Current Host-Host energy:                     0.0000000000 [K]
	Current Host-Adsorbate energy:         -1221695.3397032069 [K]
	Current Host-Cation energy:                   0.0000000000 [K]
	Current Adsorbate-Adsorbate energy:     -178824.8062323595 [K]
	Current Cation-Cation energy:                 0.0000000000 [K]
	Current Adsorbate-Cation energy:              0.0000000000 [K]



[Init] Current cycle: 17000 out of 100000
========================================================================================================

Net charge: 0 (F: 0, A: 0, C: 0)
Current Box:  37.15600   0.00000   0.00000 [A]
               0.00000  37.15600   0.00000 [A]
               0.00000   0.00000  37.15600 [A]
Box-lengths:  37.15600  37.15600  37.15600 Box-angles:   90.00000  90.00000  90.00000 [degrees]
Volume: 51296.39709 [A^3]

Loadings per component:
----------------------------------------------------------------------------------------------------------------------------------------------------
Component 0 (argon), current number of integer/fractional/reaction molecules: 553/0/0, density: 715.12622 [kg/m^3]
	absolute adsorption:  69.12500 [mol/uc],        11.9840 [mol/kg],            478.7381 [mg/g]
	                                               268.6098 [cm^3 STP/g],        401.2418 [cm^3 STP/cm^3]
	excess adsorption:    69.12500 [mol/uc],        11.9840 [mol/kg],            478.7381 [mg/g]
	                                               268.6098 [cm^3 STP/g],        401.2418 [cm^3 STP/cm^3]
----------------------------------------------------------------------------------------------------------------------------------------------------
Degrees of freedom: 1659 0 1659 0
Number of Framework-atoms:   2304
Number of Adsorbates:         553 (553 integer, 0 fractional, 0 reaction)
Number of Cations:              0 (0 integer, 0 fractional, 0 reaction

Current total potential energy:          -1401562.3455927060 [K]
	Current Host-Host energy:                     0.0000000000 [K]
	Current Host-Adsorbate energy:         -1221995.9270591571 [K]
	Current Host-Cation energy:                   0.0000000000 [K]
	Current Adsorbate-Adsorbate energy:     -179566.4185335643 [K]
	Current Cation-Cation energy:                 0.0000000000 [K]
	Current Adsorbate-Cation energy:              0.0000000000 [K]



[Init] Current cycle: 18000 out of 100000
========================================================================================================

Net charge: 0 (F: 0, A: 0, C: 0)
Current Box:  37.15600   0.00000   0.00000 [A]
               0.00000  37.15600   0.00000 [A]
               0.00000   0.00000  37.15600 [A]
Box-lengths:  37.15600  37.15600  37.15600 Box-angles:   90.00000  90.00000  90.00000 [degrees]
Volume: 51296.39709 [A^3]

Loadings per component:
----------------------------------------------------------------------------------------------------------------------------------------------------
Component 0 (argon), current number of integer/fractional/reaction molecules: 554/0/0, density: 716.41940 [kg/m^3]
	absolute adsorption:  69.25000 [mol/uc],        12.0057 [mol/kg],            479.6038 [mg/g]
	                                               269.0955 [cm^3 STP/g],        401.9674 [cm^3 STP/cm^3]
	excess adsorption:    69.25000 [mol/uc],        12.0057 [mol/kg],            479.6038 [mg/g]
	                                               269.0955 [cm^3 STP/g],        401.9674 [cm^3 STP/cm^3]
----------------------------------------------------------------------------------------------------------------------------------------------------
Degrees of freedom: 1662 0 1662 0
Number of Framework-atoms:   2304
Number of Adsorbates:         554 (554 integer, 0 fractional, 0 reaction)
Number of Cations:              0 (0 integer, 0 fractional, 0 reaction

Current total potential energy:          -1402168.3541776997 [K]
	Current Host-Host energy:                     0.0000000000 [K]
	Current Host-Adsorbate energy:         -1223011.2090973929 [K]
	Current Host-Cation energy:                   0.0000000000 [K]
	Current Adsorbate-Adsorbate energy:     -179157.1450803220 [K]
	Current Cation-Cation energy:                 0.0000000000 [K]
	Current Adsorbate-Cation energy:              0.0000000000 [K]



[Init] Current cycle: 19000 out of 100000
========================================================================================================

Net charge: 0 (F: 0, A: 0, C: 0)
Current Box:  37.15600   0.00000   0.00000 [A]
               0.00000  37.15600   0.00000 [A]
               0.00000   0.00000  37.15600 [A]
Box-lengths:  37.15600  37.15600  37.15600 Box-angles:   90.00000  90.00000  90.00000 [degrees]
Volume: 51296.39709 [A^3]

Loadings per component:
----------------------------------------------------------------------------------------------------------------------------------------------------
Component 0 (argon), current number of integer/fractional/reaction molecules: 554/0/0, density: 716.41940 [kg/m^3]
	absolute adsorption:  69.25000 [mol/uc],        12.0057 [mol/kg],            479.6038 [mg/g]
	                                               269.0955 [cm^3 STP/g],        401.9674 [cm^3 STP/cm^3]
	excess adsorption:    69.25000 [mol/uc],        12.0057 [mol/kg],            479.6038 [mg/g]
	                                               269.0955 [cm^3 STP/g],        401.9674 [cm^3 STP/cm^3]
----------------------------------------------------------------------------------------------------------------------------------------------------
Degrees of freedom: 1662 0 1662 0
Number of Framework-atoms:   2304
Number of Adsorbates:         554 (554 integer, 0 fractional, 0 reaction)
Number of Cations:              0 (0 integer, 0 fractional, 0 reaction

Current total potential energy:          -1406947.4366432754 [K]
	Current Host-Host energy:                     0.0000000000 [K]
	Current Host-Adsorbate energy:         -1228367.7397680695 [K]
	Current Host-Cation energy:                   0.0000000000 [K]
	Current Adsorbate-Adsorbate energy:     -178579.6968751894 [K]
	Current Cation-Cation energy:                 0.0000000000 [K]
	Current Adsorbate-Cation energy:              0.0000000000 [K]



[Init] Current cycle: 20000 out of 100000
========================================================================================================

Net charge: 0 (F: 0, A: 0, C: 0)
Current Box:  37.15600   0.00000   0.00000 [A]
               0.00000  37.15600   0.00000 [A]
               0.00000   0.00000  37.15600 [A]
Box-lengths:  37.15600  37.15600  37.15600 Box-angles:   90.00000  90.00000  90.00000 [degrees]
Volume: 51296.39709 [A^3]

Loadings per component:
----------------------------------------------------------------------------------------------------------------------------------------------------
Component 0 (argon), current number of integer/fractional/reaction molecules: 558/0/0, density: 721.59210 [kg/m^3]
	absolute adsorption:  69.75000 [mol/uc],        12.0924 [mol/kg],            483.0666 [mg/g]
	                                               271.0384 [cm^3 STP/g],        404.8697 [cm^3 STP/cm^3]
	excess adsorption:    69.75000 [mol/uc],        12.0924 [mol/kg],            483.0666 [mg/g]
	                                               271.0384 [cm^3 STP/g],        404.8697 [cm^3 STP/cm^3]
----------------------------------------------------------------------------------------------------------------------------------------------------
Degrees of freedom: 1674 0 1674 0
Number of Framework-atoms:   2304
Number of Adsorbates:         558 (558 integer, 0 fractional, 0 reaction)
Number of Cations:              0 (0 integer, 0 fractional, 0 reaction

Current total potential energy:          -1408885.3688040404 [K]
	Current Host-Host energy:                     0.0000000000 [K]
	Current Host-Adsorbate energy:         -1230891.6989039218 [K]
	Current Host-Cation energy:                   0.0000000000 [K]
	Current Adsorbate-Adsorbate energy:     -177993.6699000972 [K]
	Current Cation-Cation energy:                 0.0000000000 [K]
	Current Adsorbate-Cation energy:              0.0000000000 [K]



[Init] Current cycle: 21000 out of 100000
========================================================================================================

Net charge: 0 (F: 0, A: 0, C: 0)
Current Box:  37.15600   0.00000   0.00000 [A]
               0.00000  37.15600   0.00000 [A]
               0.00000   0.00000  37.15600 [A]
Box-lengths:  37.15600  37.15600  37.15600 Box-angles:   90.00000  90.00000  90.00000 [degrees]
Volume: 51296.39709 [A^3]

Loadings per component:
----------------------------------------------------------------------------------------------------------------------------------------------------
Component 0 (argon), current number of integer/fractional/reaction molecules: 556/0/0, density: 719.00575 [kg/m^3]
	absolute adsorption:  69.50000 [mol/uc],        12.0490 [mol/kg],            481.3352 [mg/g]
	                                               270.0670 [cm^3 STP/g],        403.4185 [cm^3 STP/cm^3]
	excess adsorption:    69.50000 [mol/uc],        12.0490 [mol/kg],            481.3352 [mg/g]
	                                               270.0670 [cm^3 STP/g],        403.4185 [cm^3 STP/cm^3]
----------------------------------------------------------------------------------------------------------------------------------------------------
Degrees of freedom: 1668 0 1668 0
Number of Framework-atoms:   2304
Number of Adsorbates:         556 (556 integer, 0 fractional, 0 reaction)
Number of Cations:              0 (0 integer, 0 fractional, 0 reaction

Current total potential energy:          -1404288.3341465082 [K]
	Current Host-Host energy:                     0.0000000000 [K]
	Current Host-Adsorbate energy:         -1229319.1086863682 [K]
	Current Host-Cation energy:                   0.0000000000 [K]
	Current Adsorbate-Adsorbate energy:     -174969.2254601015 [K]
	Current Cation-Cation energy:                 0.0000000000 [K]
	Current Adsorbate-Cation energy:              0.0000000000 [K]



[Init] Current cycle: 22000 out of 100000
========================================================================================================

Net charge: 0 (F: 0, A: 0, C: 0)
Current Box:  37.15600   0.00000   0.00000 [A]
               0.00000  37.15600   0.00000 [A]
               0.00000   0.00000  37.15600 [A]
Box-lengths:  37.15600  37.15600  37.15600 Box-angles:   90.00000  90.00000  90.00000 [degrees]
Volume: 51296.39709 [A^3]

[...]
	Block[ 2]            0.00000 [K]
	Block[ 3]            0.00000 [K]
	Block[ 4]            0.00000 [K]
	------------------------------------------------------------------------------
	Average              0.00000 [K] +/-            0.00000 [K]

Average Cation Bend angle inversion energy:
===========================================
	Block[ 0]            0.00000 [K]
	Block[ 1]            0.00000 [K]
	Block[ 2]            0.00000 [K]
	Block[ 3]            0.00000 [K]
	Block[ 4]            0.00000 [K]
	------------------------------------------------------------------------------
	Average              0.00000 [K] +/-            0.00000 [K]

Average Cation Torsion energy:
==============================
	Block[ 0]            0.00000 [K]
	Block[ 1]            0.00000 [K]
	Block[ 2]            0.00000 [K]
	Block[ 3]            0.00000 [K]
	Block[ 4]            0.00000 [K]
	------------------------------------------------------------------------------
	Average              0.00000 [K] +/-            0.00000 [K]

Average Cation Improper Torsion energy:
=======================================
	Block[ 0]            0.00000 [K]
	Block[ 1]            0.00000 [K]
	Block[ 2]            0.00000 [K]
	Block[ 3]            0.00000 [K]
	Block[ 4]            0.00000 [K]
	------------------------------------------------------------------------------
	Average              0.00000 [K] +/-            0.00000 [K]

Average Cation Bond-Bond cross term energy:
=================================================
	Block[ 0]            0.00000 [K]
	Block[ 1]            0.00000 [K]
	Block[ 2]            0.00000 [K]
	Block[ 3]            0.00000 [K]
	Block[ 4]            0.00000 [K]
	------------------------------------------------------------------------------
	Average              0.00000 [K] +/-            0.00000 [K]

Average Cation Bend-Bend cross term energy:
===========================================
	Block[ 0]            0.00000 [K]
	Block[ 1]            0.00000 [K]
	Block[ 2]            0.00000 [K]
	Block[ 3]            0.00000 [K]
	Block[ 4]            0.00000 [K]
	------------------------------------------------------------------------------
	Average              0.00000 [K] +/-            0.00000 [K]

Average Cation Bond-Bend cross term energy:
==============================================
	Block[ 0]            0.00000 [K]
	Block[ 1]            0.00000 [K]
	Block[ 2]            0.00000 [K]
	Block[ 3]            0.00000 [K]
	Block[ 4]            0.00000 [K]
	------------------------------------------------------------------------------
	Average              0.00000 [K] +/-            0.00000 [K]

Average Cation Bond-Torsion cross term energy:
==============================================
	Block[ 0]            0.00000 [K]
	Block[ 1]            0.00000 [K]
	Block[ 2]            0.00000 [K]
	Block[ 3]            0.00000 [K]
	Block[ 4]            0.00000 [K]
	------------------------------------------------------------------------------
	Average              0.00000 [K] +/-            0.00000 [K]

Average Cation Bend-Torsion cross term energy:
==============================================
	Block[ 0]            0.00000 [K]
	Block[ 1]            0.00000 [K]
	Block[ 2]            0.00000 [K]
	Block[ 3]            0.00000 [K]
	Block[ 4]            0.00000 [K]
	------------------------------------------------------------------------------
	Average              0.00000 [K] +/-            0.00000 [K]

Average Cation Intra Van der Waals energy:
==========================================
	Block[ 0]            0.00000 [K]
	Block[ 1]            0.00000 [K]
	Block[ 2]            0.00000 [K]
	Block[ 3]            0.00000 [K]
	Block[ 4]            0.00000 [K]
	------------------------------------------------------------------------------
	Average              0.00000 [K] +/-            0.00000 [K]

Average Cation Intra charge-charge Coulomb energy:
====================================
	Block[ 0]            0.00000 [K]
	Block[ 1]            0.00000 [K]
	Block[ 2]            0.00000 [K]
	Block[ 3]            0.00000 [K]
	Block[ 4]            0.00000 [K]
	------------------------------------------------------------------------------
	Average              0.00000 [K] +/-            0.00000 [K]

Average Cation Intra charge-bonddipole Coulomb energy:
====================================
	Block[ 0]            0.00000 [K]
	Block[ 1]            0.00000 [K]
	Block[ 2]            0.00000 [K]
	Block[ 3]            0.00000 [K]
	Block[ 4]            0.00000 [K]
	------------------------------------------------------------------------------
	Average              0.00000 [K] +/-            0.00000 [K]

Average Cation Intra bonddipole-bonddipole Coulomb energy:
====================================
	Block[ 0]            0.00000 [K]
	Block[ 1]            0.00000 [K]
	Block[ 2]            0.00000 [K]
	Block[ 3]            0.00000 [K]
	Block[ 4]            0.00000 [K]
	------------------------------------------------------------------------------
	Average              0.00000 [K] +/-            0.00000 [K]

Average Host-Host energy:
=========================
	Block[ 0] 0.00000            Van der Waals: 0.00000            Coulomb: 0.00000            [K]
	Block[ 1] 0.00000            Van der Waals: 0.00000            Coulomb: 0.00000            [K]
	Block[ 2] 0.00000            Van der Waals: 0.00000            Coulomb: 0.00000            [K]
	Block[ 3] 0.00000            Van der Waals: 0.00000            Coulomb: 0.00000            [K]
	Block[ 4] 0.00000            Van der Waals: 0.00000            Coulomb: 0.00000            [K]
	------------------------------------------------------------------------------
	Average   0.00000            Van der Waals: 0.000000           Coulomb: 0.00000            [K]
	      +/- 0.00000                       +/- 0.000000                +/- 0.00000            [K]

Average Adsorbate-Adsorbate energy:
===================================
	Block[ 0] -175843.43249      Van der Waals: -175843.43249      Coulomb: 0.00000            [K]
	Block[ 1] -175429.33683      Van der Waals: -175429.33683      Coulomb: 0.00000            [K]
	Block[ 2] -173939.54350      Van der Waals: -173939.54350      Coulomb: 0.00000            [K]
	Block[ 3] -172967.30361      Van der Waals: -172967.30361      Coulomb: 0.00000            [K]
	Block[ 4] -171668.32746      Van der Waals: -171668.32746      Coulomb: 0.00000            [K]
	------------------------------------------------------------------------------
	Average   -173969.58878      Van der Waals: -173969.588778     Coulomb: 0.00000            [K]
	      +/- 3091.07575                    +/- 3091.075746             +/- 0.00000            [K]

Average Cation-Cation energy:
=============================
	Block[ 0] 0.00000            Van der Waals: 0.00000            Coulomb: 0.00000            [K]
	Block[ 1] 0.00000            Van der Waals: 0.00000            Coulomb: 0.00000            [K]
	Block[ 2] 0.00000            Van der Waals: 0.00000            Coulomb: 0.00000            [K]
	Block[ 3] 0.00000            Van der Waals: 0.00000            Coulomb: 0.00000            [K]
	Block[ 4] 0.00000            Van der Waals: 0.00000            Coulomb: 0.00000            [K]
	------------------------------------------------------------------------------
	Average   0.00000            Van der Waals: 0.000000           Coulomb: 0.00000            [K]
	      +/- 0.00000                       +/- 0.000000                +/- 0.00000            [K]

Average Host-Adsorbate energy:
==============================
	Block[ 0] -1239047.81249     Van der Waals: -1239047.81249     Coulomb: 0.00000            [K]
	Block[ 1] -1240956.46482     Van der Waals: -1240956.46482     Coulomb: 0.00000            [K]
	Block[ 2] -1249307.54789     Van der Waals: -1249307.54789     Coulomb: 0.00000            [K]
	Block[ 3] -1249962.60968     Van der Waals: -1249962.60968     Coulomb: 0.00000            [K]
	Block[ 4] -1250899.64436     Van der Waals: -1250899.64436     Coulomb: 0.00000            [K]
	------------------------------------------------------------------------------
	Average   -1246034.81585     Van der Waals: -1246034.815848    Coulomb: 0.00000            [K]
	      +/- 9976.48279                    +/- 9976.482788             +/- 0.00000            [K]

Average Host-Cation energy:
===========================
	Block[ 0] 0.00000            Van der Waals: 0.00000            Coulomb: 0.00000            [K]
	Block[ 1] 0.00000            Van der Waals: 0.00000            Coulomb: 0.00000            [K]
	Block[ 2] 0.00000            Van der Waals: 0.00000            Coulomb: 0.00000            [K]
	Block[ 3] 0.00000            Van der Waals: 0.00000            Coulomb: 0.00000            [K]
	Block[ 4] 0.00000            Van der Waals: 0.00000            Coulomb: 0.00000            [K]
	------------------------------------------------------------------------------
	Average   0.00000            Van der Waals: 0.000000           Coulomb: 0.00000            [K]
	      +/- 0.00000                       +/- 0.000000                +/- 0.00000            [K]

Average Adsorbate-Cation energy:
================================
	Block[ 0] 0.00000            Van der Waals: 0.00000            Coulomb: 0.00000            [K]
	Block[ 1] 0.00000            Van der Waals: 0.00000            Coulomb: 0.00000            [K]
	Block[ 2] 0.00000            Van der Waals: 0.00000            Coulomb: 0.00000            [K]
	Block[ 3] 0.00000            Van der Waals: 0.00000            Coulomb: 0.00000            [K]
	Block[ 4] 0.00000            Van der Waals: 0.00000            Coulomb: 0.00000            [K]
	------------------------------------------------------------------------------
	Average   0.00000            Van der Waals: 0.000000           Coulomb: 0.00000            [K]
	      +/- 0.00000                       +/- 0.000000                +/- 0.00000            [K]

Host polarization energy:
=======================
	Block[ 0]            0.00000 [K]
	Block[ 1]            0.00000 [K]
	Block[ 2]            0.00000 [K]
	Block[ 3]            0.00000 [K]
	Block[ 4]            0.00000 [K]
	------------------------------------------------------------------------------
	Average              0.00000 [K] +/-            0.00000 [K]

Adsorbate polarization energy:
=======================
	Block[ 0]            0.00000 [K]
	Block[ 1]            0.00000 [K]
	Block[ 2]            0.00000 [K]
	Block[ 3]            0.00000 [K]
	Block[ 4]            0.00000 [K]
	------------------------------------------------------------------------------
	Average              0.00000 [K] +/-            0.00000 [K]

Cation polarization energy:
=======================
	Block[ 0]            0.00000 [K]
	Block[ 1]            0.00000 [K]
	Block[ 2]            0.00000 [K]
	Block[ 3]            0.00000 [K]
	Block[ 4]            0.00000 [K]
	------------------------------------------------------------------------------
	Average              0.00000 [K] +/-            0.00000 [K]

Host back-polarization energy:
=======================
	Block[ 0]            0.00000 [K]
	Block[ 1]            0.00000 [K]
	Block[ 2]            0.00000 [K]
	Block[ 3]            0.00000 [K]
	Block[ 4]            0.00000 [K]
	------------------------------------------------------------------------------
	Average              0.00000 [K] +/-            0.00000 [K]

Adsorbate back-polarization energy:
=======================
	Block[ 0]            0.00000 [K]
	Block[ 1]            0.00000 [K]
	Block[ 2]            0.00000 [K]
	Block[ 3]            0.00000 [K]
	Block[ 4]            0.00000 [K]
	------------------------------------------------------------------------------
	Average              0.00000 [K] +/-            0.00000 [K]

Cation back-polarization energy:
=======================
	Block[ 0]            0.00000 [K]
	Block[ 1]            0.00000 [K]
	Block[ 2]            0.00000 [K]
	Block[ 3]            0.00000 [K]
	Block[ 4]            0.00000 [K]
	------------------------------------------------------------------------------
	Average              0.00000 [K] +/-            0.00000 [K]

Tail-correction energy:
=======================
	Block[ 0]            0.00000 [K]
	Block[ 1]            0.00000 [K]
	Block[ 2]            0.00000 [K]
	Block[ 3]            0.00000 [K]
	Block[ 4]            0.00000 [K]
	------------------------------------------------------------------------------
	Average              0.00000 [K] +/-            0.00000 [K]

Distance-constraints energy:
=======================
	Block[ 0]            0.00000 [K]
	Block[ 1]            0.00000 [K]
	Block[ 2]            0.00000 [K]
	Block[ 3]            0.00000 [K]
	Block[ 4]            0.00000 [K]
	------------------------------------------------------------------------------
	Average              0.00000 [K] +/-            0.00000 [K]

Angle-constraints energy:
=======================
	Block[ 0]            0.00000 [K]
	Block[ 1]            0.00000 [K]
	Block[ 2]            0.00000 [K]
	Block[ 3]            0.00000 [K]
	Block[ 4]            0.00000 [K]
	------------------------------------------------------------------------------
	Average              0.00000 [K] +/-            0.00000 [K]

Dihedral-constraints energy:
=======================
	Block[ 0]            0.00000 [K]
	Block[ 1]            0.00000 [K]
	Block[ 2]            0.00000 [K]
	Block[ 3]            0.00000 [K]
	Block[ 4]            0.00000 [K]
	------------------------------------------------------------------------------
	Average              0.00000 [K] +/-            0.00000 [K]

Inversion-bend constraints energy:
=======================
	Block[ 0]            0.00000 [K]
	Block[ 1]            0.00000 [K]
	Block[ 2]            0.00000 [K]
	Block[ 3]            0.00000 [K]
	Block[ 4]            0.00000 [K]
	------------------------------------------------------------------------------
	Average              0.00000 [K] +/-            0.00000 [K]

Out-of-plane-distance constraints energy:
=======================
	Block[ 0]            0.00000 [K]
	Block[ 1]            0.00000 [K]
	Block[ 2]            0.00000 [K]
	Block[ 3]            0.00000 [K]
	Block[ 4]            0.00000 [K]
	------------------------------------------------------------------------------
	Average              0.00000 [K] +/-            0.00000 [K]

Exclusion-constraints energy:
=======================
	Block[ 0]            0.00000 [K]
	Block[ 1]            0.00000 [K]
	Block[ 2]            0.00000 [K]
	Block[ 3]            0.00000 [K]
	Block[ 4]            0.00000 [K]
	------------------------------------------------------------------------------
	Average              0.00000 [K] +/-            0.00000 [K]

Total energy:
=============
	Block[ 0]     -1414891.24497 [K]
	Block[ 1]     -1416385.80165 [K]
	Block[ 2]     -1423247.09139 [K]
	Block[ 3]     -1422929.91329 [K]
	Block[ 4]     -1422567.97182 [K]
	------------------------------------------------------------------------------
	Average       -1420004.40463 [K] +/-         7204.67538 [K]

Number of molecules:
====================

Component 0 [argon]
-------------------------------------------------------------
	Block[ 0] 559.25000          [-]
	Block[ 1] 559.92315          [-]
	Block[ 2] 564.28785          [-]
	Block[ 3] 563.59560          [-]
	Block[ 4] 563.62530          [-]
	------------------------------------------------------------------------------
	Average                                    562.1363800000 +/-       4.2146986106 [-]
	Average loading absolute [molecules/unit cell]       70.2670475000 +/-       0.5268373263 [-]
	Average loading absolute [mol/kg framework]         12.1820244466 +/-       0.0913364858 [-]
	Average loading absolute [milligram/gram framework]        486.6475125938 +/-       3.6487099361 [-]
	Average loading absolute [cm^3 (STP)/gr framework]        273.0476005032 +/-       2.0472137784 [-]
	Average loading absolute [cm^3 (STP)/cm^3 framework]        407.8709141252 +/-       3.0580710237 [-]

	Block[ 0] 559.25000          [-]
	Block[ 1] 559.92315          [-]
	Block[ 2] 564.28785          [-]
	Block[ 3] 563.59560          [-]
	Block[ 4] 563.62530          [-]
	------------------------------------------------------------------------------
	Average                                    562.1363800000 +/-       4.2146986106 [-]
	Average loading excess [molecules/unit cell]       70.2670475000 +/-       0.5268373263 [-]
	Average loading excess [mol/kg framework]         12.1820244466 +/-       0.0913364858 [-]
	Average loading excess [milligram/gram framework]        486.6475125938 +/-       3.6487099361 [-]
	Average loading excess [cm^3 (STP)/gr framework]        273.0476005032 +/-       2.0472137784 [-]
	Average loading excess [cm^3 (STP)/cm^3 framework]        407.8709141252 +/-       3.0580710237 [-]


Average Widom Rosenbluth factor:
================================
	Block[ 0] 0 [-]
	Block[ 1] 0 [-]
	Block[ 2] 0 [-]
	Block[ 3] 0 [-]
	Block[ 4] 0 [-]
	------------------------------------------------------------------------------
	[argon] Average Widom Rosenbluth-weight:   0 +/- 0.000000 [-]

Average Widom chemical potential:
=================================
	Block[ 0] 0 [-]
	Block[ 1] 0 [-]
	Block[ 2] 0 [-]
	Block[ 3] 0 [-]
	Block[ 4] 0 [-]
	------------------------------------------------------------------------------
	[argon] Average chemical potential:   0 +/- 0.000000 [K]

Average Widom Ideal-gas contribution:
=====================================
	Block[ 0] 0 [-]
	Block[ 1] 0 [-]
	Block[ 2] 0 [-]
	Block[ 3] 0 [-]
	Block[ 4] 0 [-]
	------------------------------------------------------------------------------
	[argon] Average Widom Ideal-gas chemical potential:   0 +/- 0.000000 [-]

Average Widom excess contribution:
==================================
	Block[ 0] 0 [-]
	Block[ 1] 0 [-]
	Block[ 2] 0 [-]
	Block[ 3] 0 [-]
	Block[ 4] 0 [-]
	------------------------------------------------------------------------------
	[argon] Average Widom excess chemical potential:   0 +/- 0.000000 [-]

Average Gibbs Widom Rosenbluth factor:
======================================
	Block[ 0] 0 [-]
	Block[ 1] 0 [-]
	Block[ 2] 0 [-]
	Block[ 3] 0 [-]
	Block[ 4] 0 [-]
	------------------------------------------------------------------------------
	[argon] Average Gibbs Widom Rosenbluth-weight:   0 +/- 0.000000 [-]

Average Gibbs Widom chemical potential:
=======================================
	Block[ 0] 0 [-]
	Block[ 1] 0 [-]
	Block[ 2] 0 [-]
	Block[ 3] 0 [-]
	Block[ 4] 0 [-]
	------------------------------------------------------------------------------
	[argon] Average Gibbs chemical potential:   0 +/- 0.000000 [K]

Average Gibbs Widom Ideal-gas contribution:
===========================================
	Block[ 0] 0 [-]
	Block[ 1] 0 [-]
	Block[ 2] 0 [-]
	Block[ 3] 0 [-]
	Block[ 4] 0 [-]
	------------------------------------------------------------------------------
	[argon] Average Gibbs Ideal-gas chemical potential:   0 +/- 0.000000 [-]

Average Gibbs Widom excess contribution:
===========================================
	Block[ 0] 0 [-]
	Block[ 1] 0 [-]
	Block[ 2] 0 [-]
	Block[ 3] 0 [-]
	Block[ 4] 0 [-]
	------------------------------------------------------------------------------
	[argon] Average Gibbs excess chemical potential:   0 +/- 0.000000 [-]

Average Henry coefficient:
==========================
	Block[ 0] 0 [mol/kg/Pa]
	Block[ 1] 0 [mol/kg/Pa]
	Block[ 2] 0 [mol/kg/Pa]
	Block[ 3] 0 [mol/kg/Pa]
	Block[ 4] 0 [mol/kg/Pa]
	------------------------------------------------------------------------------
	[argon] Average Henry coefficient:  0 +/- 0 [mol/kg/Pa]

Average adsorption energy <U_gh>_1-<U_h>_0 obtained from Widom-insertion:
(Note: the total heat of adsorption is dH=<U_gh>_1-<U_h>_0 - <U_g> - RT)
=========================================================================

Simulation finished,  0 warnings


Tue Jun  8 02:43:00 2021
Simulation finished on Tuesday, June 08.
The end time was 02:43 AM.

